
     Program PWSCF v.7.1 starts on  5Sep2022 at 14:54:17 

     This program is part of the open-source Quantum ESPRESSO suite
     for quantum simulation of materials; please cite
         "P. Giannozzi et al., J. Phys.:Condens. Matter 21 395502 (2009);
         "P. Giannozzi et al., J. Phys.:Condens. Matter 29 465901 (2017);
         "P. Giannozzi et al., J. Chem. Phys. 152 154105 (2020);
          URL http://www.quantum-espresso.org", 
     in publications or presentations arising from this work. More details at
     http://www.quantum-espresso.org/quote

     Parallel version (MPI), running on     1 processors

     MPI processes distributed on     1 nodes
     8605 MiB available memory on the printing compute node when the environment starts

     Waiting for input...
     Reading input from standard input
Warning: card &CELL ignored
Warning: card / ignored

     Current dimensions of program PWSCF are:
     Max number of different atomic species (ntypx) = 10
     Max number of k-points (npk) =  40000
     Max angular momentum in pseudopotentials (lmaxx) =  4
     file O.pbe-n-kjpaw_psl.1.0.0.UPF: wavefunction(s)  2S 2P renormalized

     gamma-point specific algorithms are used

     Subspace diagonalization in iterative solution of the eigenvalue problem:
     a serial algorithm will be used


     G-vector sticks info
     --------------------
     sticks:   dense  smooth     PW     G-vecs:    dense   smooth      PW
     Sum       11913   11913   2965               979259   979259  122321

     Using Slab Decomposition



     bravais-lattice index     =            1
     lattice parameter (alat)  =      24.9822  a.u.
     unit-cell volume          =   15591.6104 (a.u.)^3
     number of atoms/cell      =            2
     number of atomic types    =            2
     number of electrons       =        10.00
     number of Kohn-Sham states=            9
     kinetic-energy cutoff     =      60.0000  Ry
     charge density cutoff     =     240.0000  Ry
     scf convergence threshold =      1.0E-10
     mixing beta               =       0.5000
     number of iterations used =            8  plain     mixing
     energy convergence thresh.=      1.0E-04
     force convergence thresh. =      1.0E-03
     Exchange-correlation= SLA  PW   PBX  PBC
                           (   1   4   3   4   0   0   0)
     nstep                     =           50


     celldm(1)=  24.982179  celldm(2)=   0.000000  celldm(3)=   0.000000
     celldm(4)=   0.000000  celldm(5)=   0.000000  celldm(6)=   0.000000

     crystal axes: (cart. coord. in units of alat)
               a(1) = (   1.000000   0.000000   0.000000 )  
               a(2) = (   0.000000   1.000000   0.000000 )  
               a(3) = (   0.000000   0.000000   1.000000 )  

     reciprocal axes: (cart. coord. in units 2 pi/alat)
               b(1) = (  1.000000  0.000000  0.000000 )  
               b(2) = (  0.000000  1.000000  0.000000 )  
               b(3) = (  0.000000  0.000000  1.000000 )  


     PseudoPot. # 1 for C  read from file:
     ../../pseudos/C.pbe-tm-new-gipaw-dc.UPF
     MD5 check sum: c9fa938d11269a3b0a4c160d8754c0f1
     Pseudo is Norm-conserving, Zval =  4.0
     Generated by new atomic code, or converted to UPF format
     Using radial grid of 1441 points,  1 beta functions with: 
                l(1) =   0

     PseudoPot. # 2 for O  read from file:
     ../../pseudos/O.pbe-n-kjpaw_psl.1.0.0.UPF
     MD5 check sum: 23191a2bbe718536eb1a23b5d2139378
     Pseudo is Projector augmented-wave + core cor, Zval =  6.0
     Generated using "atomic" code by A. Dal Corso  v.6.1 svn rev. 13369
     Shape of augmentation charge: PSQ
     Using radial grid of 1095 points,  4 beta functions with: 
                l(1) =   0
                l(2) =   0
                l(3) =   1
                l(4) =   1
     Q(r) pseudized with 0 coefficients 


     atomic species   valence    mass     pseudopotential
        C              4.00    12.01100     C ( 1.00)
        O              6.00    15.99900     O ( 1.00)

     No symmetry found



   Cartesian axes

     site n.     atom                  positions (alat units)
         1           C   tau(   1) = (   0.0000000   0.0000000   0.0000000  )
         2           O   tau(   2) = (   0.0378215   0.0000000   0.0000000  )

     -------------------------------------------------
     Parameters for Dispersion (Grimme-D2) Correction:
     -------------------------------------------------
       atom      VdW radius       C_6     

        C          2.744         60.710
        O          2.536         24.284

     number of k points=     1  Marzari-Vanderbilt smearing, width (Ry)=  0.0200
                       cart. coord. in units 2pi/alat
        k(    1) = (   0.0000000   0.0000000   0.0000000), wk =   2.0000000

     Dense  grid:   489630 G-vectors     FFT dimensions: ( 125, 125, 125)

     Estimated max dynamical RAM per process >     702.62 MB

     Initial potential from superposition of free atoms

     starting charge      10.0000, renormalised to      10.0000

     negative rho (up, down):  7.824E-03 0.000E+00
     Starting wfcs are   12 randomized atomic wfcs
     Checking if some PAW data can be deallocated... 

     total cpu time spent up to now is        2.8 secs

     Self-consistent Calculation

     iteration #  1     ecut=    60.00 Ry     beta= 0.50
     Davidson diagonalization with overlap
     ethr =  1.00E-02,  avg # of iterations =  7.0

     negative rho (up, down):  1.444E-02 0.000E+00

     total cpu time spent up to now is        5.9 secs

     total energy              =     -42.15020775 Ry
     estimated scf accuracy    <       4.37694768 Ry

     iteration #  2     ecut=    60.00 Ry     beta= 0.50
     Davidson diagonalization with overlap
     ethr =  1.00E-02,  avg # of iterations =  3.0

     negative rho (up, down):  1.555E-02 0.000E+00

     total cpu time spent up to now is        8.4 secs

     total energy              =     -42.59533071 Ry
     estimated scf accuracy    <       0.21190702 Ry

     iteration #  3     ecut=    60.00 Ry     beta= 0.50
     Davidson diagonalization with overlap
     ethr =  2.12E-03,  avg # of iterations =  3.0

     negative rho (up, down):  1.500E-02 0.000E+00

     total cpu time spent up to now is       10.7 secs

     total energy              =     -42.74331284 Ry
     estimated scf accuracy    <       0.05263429 Ry

     iteration #  4     ecut=    60.00 Ry     beta= 0.50
     Davidson diagonalization with overlap
     ethr =  5.26E-04,  avg # of iterations =  3.0

     negative rho (up, down):  1.572E-02 0.000E+00

     total cpu time spent up to now is       13.4 secs

     total energy              =     -42.75965386 Ry
     estimated scf accuracy    <       0.00261875 Ry

     iteration #  5     ecut=    60.00 Ry     beta= 0.50
     Davidson diagonalization with overlap
     ethr =  2.62E-05,  avg # of iterations = 14.0

     negative rho (up, down):  1.641E-02 0.000E+00

     total cpu time spent up to now is       17.8 secs

     total energy              =     -42.76151284 Ry
     estimated scf accuracy    <       0.00658853 Ry

     iteration #  6     ecut=    60.00 Ry     beta= 0.50
     Davidson diagonalization with overlap
     ethr =  2.62E-05,  avg # of iterations =  3.0

     negative rho (up, down):  1.656E-02 0.000E+00

     total cpu time spent up to now is       20.1 secs

     total energy              =     -42.76305014 Ry
     estimated scf accuracy    <       0.00019620 Ry

     iteration #  7     ecut=    60.00 Ry     beta= 0.50
     Davidson diagonalization with overlap
     ethr =  1.96E-06,  avg # of iterations =  7.0

     negative rho (up, down):  1.660E-02 0.000E+00

     total cpu time spent up to now is       23.2 secs

     total energy              =     -42.76326816 Ry
     estimated scf accuracy    <       0.00001799 Ry

     iteration #  8     ecut=    60.00 Ry     beta= 0.50
     Davidson diagonalization with overlap
     ethr =  1.80E-07,  avg # of iterations =  4.0

     negative rho (up, down):  1.663E-02 0.000E+00

     total cpu time spent up to now is       25.6 secs

     total energy              =     -42.76327311 Ry
     estimated scf accuracy    <       0.00000775 Ry

     iteration #  9     ecut=    60.00 Ry     beta= 0.50
     Davidson diagonalization with overlap
     ethr =  7.75E-08,  avg # of iterations =  2.0

     negative rho (up, down):  1.662E-02 0.000E+00

     total cpu time spent up to now is       27.7 secs

     total energy              =     -42.76327292 Ry
     estimated scf accuracy    <       0.00000228 Ry

     iteration # 10     ecut=    60.00 Ry     beta= 0.50
     Davidson diagonalization with overlap
     ethr =  2.28E-08,  avg # of iterations =  2.0

     negative rho (up, down):  1.662E-02 0.000E+00

     total cpu time spent up to now is       29.9 secs

     total energy              =     -42.76327355 Ry
     estimated scf accuracy    <       0.00000019 Ry

     iteration # 11     ecut=    60.00 Ry     beta= 0.50
     Davidson diagonalization with overlap
     ethr =  1.95E-09,  avg # of iterations =  5.0

     negative rho (up, down):  1.662E-02 0.000E+00

     total cpu time spent up to now is       32.4 secs

     total energy              =     -42.76327379 Ry
     estimated scf accuracy    <       0.00000003 Ry

     iteration # 12     ecut=    60.00 Ry     beta= 0.50
     Davidson diagonalization with overlap
     ethr =  3.48E-10,  avg # of iterations =  2.0

     negative rho (up, down):  1.662E-02 0.000E+00

     total cpu time spent up to now is       34.6 secs

     total energy              =     -42.76327379 Ry
     estimated scf accuracy    <       0.00000001 Ry

     iteration # 13     ecut=    60.00 Ry     beta= 0.50
     Davidson diagonalization with overlap
     ethr =  1.30E-10,  avg # of iterations =  2.0

     negative rho (up, down):  1.662E-02 0.000E+00

     total cpu time spent up to now is       36.7 secs

     total energy              =     -42.76327380 Ry
     estimated scf accuracy    <          6.1E-10 Ry

     iteration # 14     ecut=    60.00 Ry     beta= 0.50
     Davidson diagonalization with overlap
     ethr =  6.10E-12,  avg # of iterations =  4.0

     negative rho (up, down):  1.662E-02 0.000E+00

     total cpu time spent up to now is       39.2 secs

     total energy              =     -42.76327380 Ry
     estimated scf accuracy    <          1.9E-10 Ry

     iteration # 15     ecut=    60.00 Ry     beta= 0.50
     Davidson diagonalization with overlap
     ethr =  1.93E-12,  avg # of iterations =  1.0

     negative rho (up, down):  1.662E-02 0.000E+00

     total cpu time spent up to now is       41.2 secs

     total energy              =     -42.76327380 Ry
     estimated scf accuracy    <          2.4E-10 Ry

     iteration # 16     ecut=    60.00 Ry     beta= 0.50
     Davidson diagonalization with overlap
     ethr =  1.93E-12,  avg # of iterations =  1.0

     negative rho (up, down):  1.662E-02 0.000E+00

     total cpu time spent up to now is       43.2 secs

     total energy              =     -42.76327379 Ry
     estimated scf accuracy    <          1.5E-10 Ry

     iteration # 17     ecut=    60.00 Ry     beta= 0.50
     Davidson diagonalization with overlap
     ethr =  1.52E-12,  avg # of iterations =  4.0

     negative rho (up, down):  1.662E-02 0.000E+00

     total cpu time spent up to now is       45.7 secs

     total energy              =     -42.76327380 Ry
     estimated scf accuracy    <          6.2E-10 Ry

     iteration # 18     ecut=    60.00 Ry     beta= 0.50
     Davidson diagonalization with overlap
     ethr =  1.52E-12,  avg # of iterations =  4.0

     negative rho (up, down):  1.662E-02 0.000E+00

     total cpu time spent up to now is       48.0 secs

     End of self-consistent calculation

          k = 0.0000 0.0000 0.0000 ( 61161 PWs)   bands (ev):

   -25.9627 -24.0529 -24.0526 -12.7229  -6.2057  -0.4705   0.2218   0.2218
     0.2731

     the Fermi energy is    -4.8574 ev

!    total energy              =     -42.76327380 Ry
     estimated scf accuracy    <          9.9E-11 Ry
     smearing contrib. (-TS)   =       0.00000000 Ry
     internal energy E=F+TS    =     -42.76327380 Ry

     The total energy is F=E-TS. E is the sum of the following terms:
     one-electron contribution =    -122.04542013 Ry
     hartree contribution      =      62.58320370 Ry
     xc contribution           =     -12.98877612 Ry
     ewald contribution        =      39.44949518 Ry
     Dispersion Correction     =      -0.00000509 Ry
     one-center paw contrib.   =      -9.76177134 Ry

     convergence has been achieved in  18 iterations

     negative rho (up, down):  1.662E-02 0.000E+00

     Forces acting on atoms (cartesian axes, Ry/au):

     atom    1 type  1   force =   -35.39308473    0.00000091   -0.00000099
     atom    2 type  2   force =    35.39308473   -0.00000091    0.00000099

     Total force =    35.393085     Total SCF correction =     0.000008

     BFGS Geometry Optimization
     Energy error            =      0.0E+00 Ry
     Gradient error          =      3.5E+01 Ry/Bohr

     number of scf cycles    =   1
     number of bfgs steps    =   0

     energy             new  =     -42.7632737952 Ry

     new trust radius        =       0.5000000000 bohr
     new conv_thr            =            1.0E-10 Ry


ATOMIC_POSITIONS (angstrom)
C             0.0000000000        0.0000000000        0.0000000000    0   0   0
O             0.7645886055        0.0000000000        0.0000000000    1   0   0



     Writing config-only to output data dir ./pwscf.save/
     NEW-OLD atomic charge density approx. for the potential

     negative rho (up, down):  1.164E-02 0.000E+00

     total cpu time spent up to now is       50.5 secs

     Self-consistent Calculation

     iteration #  1     ecut=    60.00 Ry     beta= 0.50
     Davidson diagonalization with overlap
     c_bands:  2 eigenvalues not converged
     ethr =  1.00E-06,  avg # of iterations = 20.0

     negative rho (up, down):  9.775E-03 0.000E+00

     total cpu time spent up to now is       56.5 secs

     total energy              =     -51.29310247 Ry
     estimated scf accuracy    <       1.00201852 Ry

     iteration #  2     ecut=    60.00 Ry     beta= 0.50
     Davidson diagonalization with overlap
     ethr =  1.00E-02,  avg # of iterations =  2.0

     negative rho (up, down):  1.014E-02 0.000E+00

     total cpu time spent up to now is       58.5 secs

     total energy              =     -51.42265205 Ry
     estimated scf accuracy    <       0.06763409 Ry

     iteration #  3     ecut=    60.00 Ry     beta= 0.50
     Davidson diagonalization with overlap
     ethr =  6.76E-04,  avg # of iterations =  4.0

     negative rho (up, down):  1.110E-02 0.000E+00

     total cpu time spent up to now is       60.6 secs

     total energy              =     -51.44493408 Ry
     estimated scf accuracy    <       0.00955100 Ry

     iteration #  4     ecut=    60.00 Ry     beta= 0.50
     Davidson diagonalization with overlap
     ethr =  9.55E-05,  avg # of iterations =  2.0

     negative rho (up, down):  1.149E-02 0.000E+00

     total cpu time spent up to now is       62.6 secs

     total energy              =     -51.44605089 Ry
     estimated scf accuracy    <       0.00070227 Ry

     iteration #  5     ecut=    60.00 Ry     beta= 0.50
     Davidson diagonalization with overlap
     ethr =  7.02E-06,  avg # of iterations =  5.0

     negative rho (up, down):  1.146E-02 0.000E+00

     total cpu time spent up to now is       65.1 secs

     total energy              =     -51.44691742 Ry
     estimated scf accuracy    <       0.00102825 Ry

     iteration #  6     ecut=    60.00 Ry     beta= 0.50
     Davidson diagonalization with overlap
     ethr =  7.02E-06,  avg # of iterations =  1.0

     negative rho (up, down):  1.145E-02 0.000E+00

     total cpu time spent up to now is       66.9 secs

     total energy              =     -51.44654808 Ry
     estimated scf accuracy    <       0.00054879 Ry

     iteration #  7     ecut=    60.00 Ry     beta= 0.50
     Davidson diagonalization with overlap
     ethr =  5.49E-06,  avg # of iterations =  5.0

     negative rho (up, down):  1.151E-02 0.000E+00

     total cpu time spent up to now is       69.4 secs

     total energy              =     -51.44669396 Ry
     estimated scf accuracy    <       0.00031822 Ry

     iteration #  8     ecut=    60.00 Ry     beta= 0.50
     Davidson diagonalization with overlap
     ethr =  3.18E-06,  avg # of iterations =  4.0

     negative rho (up, down):  1.151E-02 0.000E+00

     total cpu time spent up to now is       71.6 secs

     total energy              =     -51.44679974 Ry
     estimated scf accuracy    <       0.00001207 Ry

     iteration #  9     ecut=    60.00 Ry     beta= 0.50
     Davidson diagonalization with overlap
     ethr =  1.21E-07,  avg # of iterations =  5.0

     negative rho (up, down):  1.150E-02 0.000E+00

     total cpu time spent up to now is       74.1 secs

     total energy              =     -51.44679237 Ry
     estimated scf accuracy    <       0.00003043 Ry

     iteration # 10     ecut=    60.00 Ry     beta= 0.50
     Davidson diagonalization with overlap
     ethr =  1.21E-07,  avg # of iterations =  5.0

     negative rho (up, down):  1.150E-02 0.000E+00

     total cpu time spent up to now is       76.5 secs

     total energy              =     -51.44680154 Ry
     estimated scf accuracy    <       0.00000223 Ry

     iteration # 11     ecut=    60.00 Ry     beta= 0.50
     Davidson diagonalization with overlap
     ethr =  2.23E-08,  avg # of iterations =  2.0

     negative rho (up, down):  1.150E-02 0.000E+00

     total cpu time spent up to now is       78.5 secs

     total energy              =     -51.44680067 Ry
     estimated scf accuracy    <       0.00000198 Ry

     iteration # 12     ecut=    60.00 Ry     beta= 0.50
     Davidson diagonalization with overlap
     ethr =  1.98E-08,  avg # of iterations =  2.0

     negative rho (up, down):  1.150E-02 0.000E+00

     total cpu time spent up to now is       80.5 secs

     total energy              =     -51.44680087 Ry
     estimated scf accuracy    <       0.00000021 Ry

     iteration # 13     ecut=    60.00 Ry     beta= 0.50
     Davidson diagonalization with overlap
     ethr =  2.11E-09,  avg # of iterations =  4.0

     negative rho (up, down):  1.150E-02 0.000E+00

     total cpu time spent up to now is       82.9 secs

     total energy              =     -51.44680108 Ry
     estimated scf accuracy    <          5.6E-09 Ry

     iteration # 14     ecut=    60.00 Ry     beta= 0.50
     Davidson diagonalization with overlap
     ethr =  5.57E-11,  avg # of iterations =  2.0

     negative rho (up, down):  1.150E-02 0.000E+00

     total cpu time spent up to now is       84.9 secs

     total energy              =     -51.44680108 Ry
     estimated scf accuracy    <          4.1E-09 Ry

     iteration # 15     ecut=    60.00 Ry     beta= 0.50
     Davidson diagonalization with overlap
     ethr =  4.13E-11,  avg # of iterations =  2.0

     negative rho (up, down):  1.150E-02 0.000E+00

     total cpu time spent up to now is       87.0 secs

     total energy              =     -51.44680108 Ry
     estimated scf accuracy    <          2.4E-09 Ry

     iteration # 16     ecut=    60.00 Ry     beta= 0.50
     Davidson diagonalization with overlap
     ethr =  2.35E-11,  avg # of iterations =  5.0

     negative rho (up, down):  1.150E-02 0.000E+00

     total cpu time spent up to now is       89.3 secs

     total energy              =     -51.44680108 Ry
     estimated scf accuracy    <          5.1E-09 Ry

     iteration # 17     ecut=    60.00 Ry     beta= 0.50
     Davidson diagonalization with overlap
     ethr =  2.35E-11,  avg # of iterations =  1.0

     negative rho (up, down):  1.150E-02 0.000E+00

     total cpu time spent up to now is       91.2 secs

     total energy              =     -51.44680108 Ry
     estimated scf accuracy    <          3.6E-09 Ry

     iteration # 18     ecut=    60.00 Ry     beta= 0.50
     Davidson diagonalization with overlap
     ethr =  2.35E-11,  avg # of iterations =  1.0

     negative rho (up, down):  1.150E-02 0.000E+00

     total cpu time spent up to now is       93.2 secs

     total energy              =     -51.44680108 Ry
     estimated scf accuracy    <          1.1E-09 Ry

     iteration # 19     ecut=    60.00 Ry     beta= 0.50
     Davidson diagonalization with overlap
     ethr =  1.09E-11,  avg # of iterations =  5.0

     negative rho (up, down):  1.150E-02 0.000E+00

     total cpu time spent up to now is       95.5 secs

     total energy              =     -51.44680108 Ry
     estimated scf accuracy    <          2.1E-10 Ry

     iteration # 20     ecut=    60.00 Ry     beta= 0.50
     Davidson diagonalization with overlap
     ethr =  2.09E-12,  avg # of iterations =  1.0

     negative rho (up, down):  1.150E-02 0.000E+00

     total cpu time spent up to now is       97.3 secs

     End of self-consistent calculation

          k = 0.0000 0.0000 0.0000 ( 61161 PWs)   bands (ev):

   -33.5992 -16.1756 -16.1756 -13.6900  -7.9456  -0.3212   0.4138   0.4138
     0.4221

     the Fermi energy is    -1.7897 ev

!    total energy              =     -51.44680108 Ry
     estimated scf accuracy    <          6.8E-11 Ry
     smearing contrib. (-TS)   =      -0.00000000 Ry
     internal energy E=F+TS    =     -51.44680108 Ry

     The total energy is F=E-TS. E is the sum of the following terms:
     one-electron contribution =    -106.23042967 Ry
     hartree contribution      =      54.18666012 Ry
     xc contribution           =     -11.64440566 Ry
     ewald contribution        =      21.87738310 Ry
     Dispersion Correction     =      -0.00000366 Ry
     one-center paw contrib.   =      -9.63600531 Ry

     convergence has been achieved in  20 iterations

     negative rho (up, down):  1.150E-02 0.000E+00

     Forces acting on atoms (cartesian axes, Ry/au):

     atom    1 type  1   force =    -6.45497692   -0.00000058    0.00000157
     atom    2 type  2   force =     6.45497692    0.00000058   -0.00000157

     Total force =     6.454977     Total SCF correction =     0.000030
     Energy error            =      8.7E+00 Ry
     Gradient error          =      6.5E+00 Ry/Bohr

     number of scf cycles    =   2
     number of bfgs steps    =   1

     energy             old  =     -42.7632737952 Ry
     energy             new  =     -51.4468010800 Ry

     CASE: energy            _new < energy            _old

     new trust radius        =       0.1115307360 bohr
     new conv_thr            =            1.0E-10 Ry


ATOMIC_POSITIONS (angstrom)
C             0.0000000000        0.0000000000        0.0000000000    0   0   0
O             0.8236081292        0.0000000000        0.0000000000    1   0   0



     Writing config-only to output data dir ./pwscf.save/
     NEW-OLD atomic charge density approx. for the potential

     negative rho (up, down):  9.947E-03 0.000E+00

     total cpu time spent up to now is       99.7 secs

     Self-consistent Calculation

     iteration #  1     ecut=    60.00 Ry     beta= 0.50
     Davidson diagonalization with overlap
     ethr =  1.00E-06,  avg # of iterations = 12.0

     negative rho (up, down):  1.023E-02 0.000E+00

     total cpu time spent up to now is      103.7 secs

     total energy              =     -52.03704723 Ry
     estimated scf accuracy    <       0.03147771 Ry

     iteration #  2     ecut=    60.00 Ry     beta= 0.50
     Davidson diagonalization with overlap
     ethr =  3.15E-04,  avg # of iterations =  2.0

     negative rho (up, down):  1.061E-02 0.000E+00

     total cpu time spent up to now is      105.7 secs

     total energy              =     -52.04056400 Ry
     estimated scf accuracy    <       0.00196127 Ry

     iteration #  3     ecut=    60.00 Ry     beta= 0.50
     Davidson diagonalization with overlap
     ethr =  1.96E-05,  avg # of iterations =  2.0

     negative rho (up, down):  1.084E-02 0.000E+00

     total cpu time spent up to now is      107.7 secs

     total energy              =     -52.04081572 Ry
     estimated scf accuracy    <       0.00030578 Ry

     iteration #  4     ecut=    60.00 Ry     beta= 0.50
     Davidson diagonalization with overlap
     ethr =  3.06E-06,  avg # of iterations =  6.0

     negative rho (up, down):  1.091E-02 0.000E+00

     total cpu time spent up to now is      110.3 secs

     total energy              =     -52.04114188 Ry
     estimated scf accuracy    <       0.00012320 Ry

     iteration #  5     ecut=    60.00 Ry     beta= 0.50
     Davidson diagonalization with overlap
     ethr =  1.23E-06,  avg # of iterations =  2.0

     negative rho (up, down):  1.094E-02 0.000E+00

     total cpu time spent up to now is      112.3 secs

     total energy              =     -52.04114355 Ry
     estimated scf accuracy    <       0.00002609 Ry

     iteration #  6     ecut=    60.00 Ry     beta= 0.50
     Davidson diagonalization with overlap
     ethr =  2.61E-07,  avg # of iterations =  2.0

     negative rho (up, down):  1.094E-02 0.000E+00

     total cpu time spent up to now is      114.3 secs

     total energy              =     -52.04114708 Ry
     estimated scf accuracy    <       0.00000287 Ry

     iteration #  7     ecut=    60.00 Ry     beta= 0.50
     Davidson diagonalization with overlap
     ethr =  2.87E-08,  avg # of iterations =  5.0

     negative rho (up, down):  1.094E-02 0.000E+00

     total cpu time spent up to now is      116.8 secs

     total energy              =     -52.04115425 Ry
     estimated scf accuracy    <       0.00001001 Ry

     iteration #  8     ecut=    60.00 Ry     beta= 0.50
     Davidson diagonalization with overlap
     ethr =  2.87E-08,  avg # of iterations =  2.0

     negative rho (up, down):  1.095E-02 0.000E+00

     total cpu time spent up to now is      118.8 secs

     total energy              =     -52.04115050 Ry
     estimated scf accuracy    <       0.00000710 Ry

     iteration #  9     ecut=    60.00 Ry     beta= 0.50
     Davidson diagonalization with overlap
     ethr =  2.87E-08,  avg # of iterations =  5.0

     negative rho (up, down):  1.095E-02 0.000E+00

     total cpu time spent up to now is      121.1 secs

     total energy              =     -52.04115224 Ry
     estimated scf accuracy    <       0.00000023 Ry

     iteration # 10     ecut=    60.00 Ry     beta= 0.50
     Davidson diagonalization with overlap
     ethr =  2.33E-09,  avg # of iterations =  5.0

     negative rho (up, down):  1.095E-02 0.000E+00

     total cpu time spent up to now is      123.5 secs

     total energy              =     -52.04115230 Ry
     estimated scf accuracy    <       0.00000033 Ry

     iteration # 11     ecut=    60.00 Ry     beta= 0.50
     Davidson diagonalization with overlap
     ethr =  2.33E-09,  avg # of iterations =  1.0

     negative rho (up, down):  1.095E-02 0.000E+00

     total cpu time spent up to now is      125.4 secs

     total energy              =     -52.04115224 Ry
     estimated scf accuracy    <       0.00000017 Ry

     iteration # 12     ecut=    60.00 Ry     beta= 0.50
     Davidson diagonalization with overlap
     ethr =  1.72E-09,  avg # of iterations =  2.0

     negative rho (up, down):  1.095E-02 0.000E+00

     total cpu time spent up to now is      127.4 secs

     total energy              =     -52.04115227 Ry
     estimated scf accuracy    <       0.00000002 Ry

     iteration # 13     ecut=    60.00 Ry     beta= 0.50
     Davidson diagonalization with overlap
     ethr =  2.37E-10,  avg # of iterations =  6.0

     negative rho (up, down):  1.095E-02 0.000E+00

     total cpu time spent up to now is      129.8 secs

     total energy              =     -52.04115228 Ry
     estimated scf accuracy    <          3.3E-09 Ry

     iteration # 14     ecut=    60.00 Ry     beta= 0.50
     Davidson diagonalization with overlap
     ethr =  3.33E-11,  avg # of iterations =  2.0

     negative rho (up, down):  1.095E-02 0.000E+00

     total cpu time spent up to now is      131.8 secs

     total energy              =     -52.04115228 Ry
     estimated scf accuracy    <          1.6E-09 Ry

     iteration # 15     ecut=    60.00 Ry     beta= 0.50
     Davidson diagonalization with overlap
     ethr =  1.56E-11,  avg # of iterations =  6.0

     negative rho (up, down):  1.095E-02 0.000E+00

     total cpu time spent up to now is      134.2 secs

     total energy              =     -52.04115228 Ry
     estimated scf accuracy    <          1.9E-09 Ry

     iteration # 16     ecut=    60.00 Ry     beta= 0.50
     Davidson diagonalization with overlap
     ethr =  1.56E-11,  avg # of iterations =  1.0

     negative rho (up, down):  1.095E-02 0.000E+00

     total cpu time spent up to now is      136.1 secs

     total energy              =     -52.04115228 Ry
     estimated scf accuracy    <          1.1E-09 Ry

     iteration # 17     ecut=    60.00 Ry     beta= 0.50
     Davidson diagonalization with overlap
     ethr =  1.09E-11,  avg # of iterations =  2.0

     negative rho (up, down):  1.095E-02 0.000E+00

     total cpu time spent up to now is      138.2 secs

     total energy              =     -52.04115228 Ry
     estimated scf accuracy    <          2.5E-10 Ry

     iteration # 18     ecut=    60.00 Ry     beta= 0.50
     Davidson diagonalization with overlap
     ethr =  2.55E-12,  avg # of iterations =  5.0

     negative rho (up, down):  1.095E-02 0.000E+00

     total cpu time spent up to now is      140.5 secs

     total energy              =     -52.04115228 Ry
     estimated scf accuracy    <          1.5E-10 Ry

     iteration # 19     ecut=    60.00 Ry     beta= 0.50
     Davidson diagonalization with overlap
     ethr =  1.49E-12,  avg # of iterations =  1.0

     negative rho (up, down):  1.095E-02 0.000E+00

     total cpu time spent up to now is      142.4 secs

     total energy              =     -52.04115228 Ry
     estimated scf accuracy    <          1.5E-10 Ry

     iteration # 20     ecut=    60.00 Ry     beta= 0.50
     Davidson diagonalization with overlap
     ethr =  1.49E-12,  avg # of iterations =  1.0

     negative rho (up, down):  1.095E-02 0.000E+00

     total cpu time spent up to now is      144.3 secs

     total energy              =     -52.04115228 Ry
     estimated scf accuracy    <          1.5E-10 Ry

     iteration # 21     ecut=    60.00 Ry     beta= 0.50
     Davidson diagonalization with overlap
     ethr =  1.49E-12,  avg # of iterations =  1.0

     negative rho (up, down):  1.095E-02 0.000E+00

     total cpu time spent up to now is      146.2 secs

     total energy              =     -52.04115228 Ry
     estimated scf accuracy    <          1.3E-10 Ry

     iteration # 22     ecut=    60.00 Ry     beta= 0.50
     Davidson diagonalization with overlap
     ethr =  1.32E-12,  avg # of iterations =  1.0

     negative rho (up, down):  1.095E-02 0.000E+00

     total cpu time spent up to now is      148.0 secs

     End of self-consistent calculation

          k = 0.0000 0.0000 0.0000 ( 61161 PWs)   bands (ev):

   -33.3018 -15.2344 -15.2343 -13.7538  -8.1464  -0.3043   0.4094   0.4094
     0.4360

     the Fermi energy is    -6.6379 ev

!    total energy              =     -52.04115228 Ry
     estimated scf accuracy    <          4.1E-11 Ry
     smearing contrib. (-TS)   =       0.00000000 Ry
     internal energy E=F+TS    =     -52.04115228 Ry

     The total energy is F=E-TS. E is the sum of the following terms:
     one-electron contribution =    -103.13042135 Ry
     hartree contribution      =      52.62377537 Ry
     xc contribution           =     -11.41188356 Ry
     ewald contribution        =      19.49894702 Ry
     Dispersion Correction     =      -0.00000363 Ry
     one-center paw contrib.   =      -9.62156614 Ry

     convergence has been achieved in  22 iterations

     negative rho (up, down):  1.095E-02 0.000E+00

     Forces acting on atoms (cartesian axes, Ry/au):

     atom    1 type  1   force =    -4.33535577    0.00000061   -0.00000183
     atom    2 type  2   force =     4.33535577   -0.00000061    0.00000183

     Total force =     4.335356     Total SCF correction =     0.000017
     Energy error            =      5.9E-01 Ry
     Gradient error          =      4.3E+00 Ry/Bohr

     number of scf cycles    =   3
     number of bfgs steps    =   2

     energy             old  =     -51.4468010800 Ry
     energy             new  =     -52.0411522814 Ry

     CASE: energy            _new < energy            _old

     new trust radius        =       0.1226838096 bohr
     new conv_thr            =            1.0E-10 Ry


ATOMIC_POSITIONS (angstrom)
C             0.0000000000        0.0000000000        0.0000000000    0   0   0
O             0.8885296054        0.0000000000        0.0000000000    1   0   0



     Writing config-only to output data dir ./pwscf.save/
     NEW-OLD atomic charge density approx. for the potential

     negative rho (up, down):  9.609E-03 0.000E+00

     total cpu time spent up to now is      150.4 secs

     Self-consistent Calculation

     iteration #  1     ecut=    60.00 Ry     beta= 0.50
     Davidson diagonalization with overlap
     ethr =  1.00E-06,  avg # of iterations = 16.0

     negative rho (up, down):  9.846E-03 0.000E+00

     total cpu time spent up to now is      154.9 secs

     total energy              =     -52.46401558 Ry
     estimated scf accuracy    <       0.02921795 Ry

     iteration #  2     ecut=    60.00 Ry     beta= 0.50
     Davidson diagonalization with overlap
     ethr =  2.92E-04,  avg # of iterations =  2.0

     negative rho (up, down):  1.016E-02 0.000E+00

     total cpu time spent up to now is      157.3 secs

     total energy              =     -52.46765185 Ry
     estimated scf accuracy    <       0.00170399 Ry

     iteration #  3     ecut=    60.00 Ry     beta= 0.50
     Davidson diagonalization with overlap
     ethr =  1.70E-05,  avg # of iterations =  7.0

     negative rho (up, down):  1.038E-02 0.000E+00

     total cpu time spent up to now is      159.9 secs

     total energy              =     -52.46780993 Ry
     estimated scf accuracy    <       0.00021006 Ry

     iteration #  4     ecut=    60.00 Ry     beta= 0.50
     Davidson diagonalization with overlap
     ethr =  2.10E-06,  avg # of iterations =  4.0

     negative rho (up, down):  1.042E-02 0.000E+00

     total cpu time spent up to now is      162.2 secs

     total energy              =     -52.46786631 Ry
     estimated scf accuracy    <       0.00001327 Ry

     iteration #  5     ecut=    60.00 Ry     beta= 0.50
     Davidson diagonalization with overlap
     ethr =  1.33E-07,  avg # of iterations =  2.0

     negative rho (up, down):  1.044E-02 0.000E+00

     total cpu time spent up to now is      164.3 secs

     total energy              =     -52.46787152 Ry
     estimated scf accuracy    <       0.00000280 Ry

     iteration #  6     ecut=    60.00 Ry     beta= 0.50
     Davidson diagonalization with overlap
     ethr =  2.80E-08,  avg # of iterations =  2.0

     negative rho (up, down):  1.044E-02 0.000E+00

     total cpu time spent up to now is      166.5 secs

     total energy              =     -52.46787222 Ry
     estimated scf accuracy    <       0.00000013 Ry

     iteration #  7     ecut=    60.00 Ry     beta= 0.50
     Davidson diagonalization with overlap
     ethr =  1.26E-09,  avg # of iterations =  5.0

     negative rho (up, down):  1.044E-02 0.000E+00

     total cpu time spent up to now is      169.1 secs

     total energy              =     -52.46787244 Ry
     estimated scf accuracy    <       0.00000034 Ry

     iteration #  8     ecut=    60.00 Ry     beta= 0.50
     Davidson diagonalization with overlap
     ethr =  1.26E-09,  avg # of iterations =  2.0

     negative rho (up, down):  1.044E-02 0.000E+00

     total cpu time spent up to now is      171.0 secs

     total energy              =     -52.46787241 Ry
     estimated scf accuracy    <       0.00000008 Ry

     iteration #  9     ecut=    60.00 Ry     beta= 0.50
     Davidson diagonalization with overlap
     ethr =  7.52E-10,  avg # of iterations =  4.0

     negative rho (up, down):  1.044E-02 0.000E+00

     total cpu time spent up to now is      173.3 secs

     total energy              =     -52.46787248 Ry
     estimated scf accuracy    <       0.00000007 Ry

     iteration # 10     ecut=    60.00 Ry     beta= 0.50
     Davidson diagonalization with overlap
     ethr =  6.59E-10,  avg # of iterations =  1.0

     negative rho (up, down):  1.044E-02 0.000E+00

     total cpu time spent up to now is      175.2 secs

     total energy              =     -52.46787246 Ry
     estimated scf accuracy    <       0.00000003 Ry

     iteration # 11     ecut=    60.00 Ry     beta= 0.50
     Davidson diagonalization with overlap
     ethr =  2.71E-10,  avg # of iterations =  2.0

     negative rho (up, down):  1.044E-02 0.000E+00

     total cpu time spent up to now is      177.3 secs

     total energy              =     -52.46787247 Ry
     estimated scf accuracy    <          2.1E-09 Ry

     iteration # 12     ecut=    60.00 Ry     beta= 0.50
     Davidson diagonalization with overlap
     ethr =  2.08E-11,  avg # of iterations =  4.0

     negative rho (up, down):  1.044E-02 0.000E+00

     total cpu time spent up to now is      179.6 secs

     total energy              =     -52.46787247 Ry
     estimated scf accuracy    <          8.6E-10 Ry

     iteration # 13     ecut=    60.00 Ry     beta= 0.50
     Davidson diagonalization with overlap
     ethr =  8.64E-12,  avg # of iterations =  2.0

     negative rho (up, down):  1.044E-02 0.000E+00

     total cpu time spent up to now is      181.5 secs

     End of self-consistent calculation

          k = 0.0000 0.0000 0.0000 ( 61161 PWs)   bands (ev):

   -32.6564 -14.3300 -14.3299 -13.8235  -8.3480  -0.2896   0.3180   0.3180
     0.4482

     the Fermi energy is    -6.4674 ev

!    total energy              =     -52.46787247 Ry
     estimated scf accuracy    <          7.0E-11 Ry
     smearing contrib. (-TS)   =       0.00000000 Ry
     internal energy E=F+TS    =     -52.46787247 Ry

     The total energy is F=E-TS. E is the sum of the following terms:
     one-electron contribution =     -99.97769575 Ry
     hartree contribution      =      51.06044900 Ry
     xc contribution           =     -11.18772805 Ry
     ewald contribution        =      17.24813865 Ry
     Dispersion Correction     =      -0.00000365 Ry
     one-center paw contrib.   =      -9.61103267 Ry

     convergence has been achieved in  13 iterations

     negative rho (up, down):  1.044E-02 0.000E+00

     Forces acting on atoms (cartesian axes, Ry/au):

     atom    1 type  1   force =    -2.72102511    0.00000051   -0.00000059
     atom    2 type  2   force =     2.72102511   -0.00000051    0.00000059

     Total force =     2.721025     Total SCF correction =     0.000027
     Energy error            =      4.3E-01 Ry
     Gradient error          =      2.7E+00 Ry/Bohr

     number of scf cycles    =   4
     number of bfgs steps    =   3

     energy             old  =     -52.0411522814 Ry
     energy             new  =     -52.4678724738 Ry

     CASE: energy            _new < energy            _old

     new trust radius        =       0.1840257143 bohr
     new conv_thr            =            1.0E-10 Ry


ATOMIC_POSITIONS (angstrom)
C             0.0000000000        0.0000000000        0.0000000000    0   0   0
O             0.9859118196        0.0000000000        0.0000000000    1   0   0



     Writing config-only to output data dir ./pwscf.save/
     NEW-OLD atomic charge density approx. for the potential

     negative rho (up, down):  8.657E-03 0.000E+00

     total cpu time spent up to now is      183.9 secs

     Self-consistent Calculation

     iteration #  1     ecut=    60.00 Ry     beta= 0.50
     Davidson diagonalization with overlap
     c_bands:  2 eigenvalues not converged
     ethr =  1.00E-06,  avg # of iterations = 20.0

     negative rho (up, down):  9.080E-03 0.000E+00

     total cpu time spent up to now is      189.0 secs

     total energy              =     -52.80696039 Ry
     estimated scf accuracy    <       0.04716539 Ry

     iteration #  2     ecut=    60.00 Ry     beta= 0.50
     Davidson diagonalization with overlap
     ethr =  4.72E-04,  avg # of iterations =  2.0

     negative rho (up, down):  9.383E-03 0.000E+00

     total cpu time spent up to now is      191.0 secs

     total energy              =     -52.81303496 Ry
     estimated scf accuracy    <       0.00423489 Ry

     iteration #  3     ecut=    60.00 Ry     beta= 0.50
     Davidson diagonalization with overlap
     ethr =  4.23E-05,  avg # of iterations =  5.0

     negative rho (up, down):  9.632E-03 0.000E+00

     total cpu time spent up to now is      193.3 secs

     total energy              =     -52.81359817 Ry
     estimated scf accuracy    <       0.00080759 Ry

     iteration #  4     ecut=    60.00 Ry     beta= 0.50
     Davidson diagonalization with overlap
     ethr =  8.08E-06,  avg # of iterations =  3.0

     negative rho (up, down):  9.787E-03 0.000E+00

     total cpu time spent up to now is      195.4 secs

     total energy              =     -52.81374004 Ry
     estimated scf accuracy    <       0.00006847 Ry

     iteration #  5     ecut=    60.00 Ry     beta= 0.50
     Davidson diagonalization with overlap
     ethr =  6.85E-07,  avg # of iterations =  5.0

     negative rho (up, down):  9.812E-03 0.000E+00

     total cpu time spent up to now is      197.7 secs

     total energy              =     -52.81375560 Ry
     estimated scf accuracy    <       0.00001164 Ry

     iteration #  6     ecut=    60.00 Ry     beta= 0.50
     Davidson diagonalization with overlap
     ethr =  1.16E-07,  avg # of iterations =  2.0

     negative rho (up, down):  9.821E-03 0.000E+00

     total cpu time spent up to now is      199.8 secs

     total energy              =     -52.81375874 Ry
     estimated scf accuracy    <       0.00000048 Ry

     iteration #  7     ecut=    60.00 Ry     beta= 0.50
     Davidson diagonalization with overlap
     ethr =  4.82E-09,  avg # of iterations =  4.0

     negative rho (up, down):  9.822E-03 0.000E+00

     total cpu time spent up to now is      202.0 secs

     total energy              =     -52.81375924 Ry
     estimated scf accuracy    <       0.00000032 Ry

     iteration #  8     ecut=    60.00 Ry     beta= 0.50
     Davidson diagonalization with overlap
     ethr =  3.16E-09,  avg # of iterations =  1.0

     negative rho (up, down):  9.825E-03 0.000E+00

     total cpu time spent up to now is      203.9 secs

     total energy              =     -52.81375924 Ry
     estimated scf accuracy    <       0.00000004 Ry

     iteration #  9     ecut=    60.00 Ry     beta= 0.50
     Davidson diagonalization with overlap
     ethr =  4.14E-10,  avg # of iterations =  4.0

     negative rho (up, down):  9.824E-03 0.000E+00

     total cpu time spent up to now is      206.3 secs

     total energy              =     -52.81375927 Ry
     estimated scf accuracy    <       0.00000004 Ry

     iteration # 10     ecut=    60.00 Ry     beta= 0.50
     Davidson diagonalization with overlap
     ethr =  4.14E-10,  avg # of iterations =  1.0

     negative rho (up, down):  9.824E-03 0.000E+00

     total cpu time spent up to now is      208.2 secs

     total energy              =     -52.81375926 Ry
     estimated scf accuracy    <          3.2E-09 Ry

     iteration # 11     ecut=    60.00 Ry     beta= 0.50
     Davidson diagonalization with overlap
     ethr =  3.25E-11,  avg # of iterations =  4.0

     negative rho (up, down):  9.824E-03 0.000E+00

     total cpu time spent up to now is      210.6 secs

     total energy              =     -52.81375927 Ry
     estimated scf accuracy    <          2.2E-09 Ry

     iteration # 12     ecut=    60.00 Ry     beta= 0.50
     Davidson diagonalization with overlap
     ethr =  2.16E-11,  avg # of iterations =  1.0

     negative rho (up, down):  9.824E-03 0.000E+00

     total cpu time spent up to now is      212.5 secs

     total energy              =     -52.81375926 Ry
     estimated scf accuracy    <          1.5E-09 Ry

     iteration # 13     ecut=    60.00 Ry     beta= 0.50
     Davidson diagonalization with overlap
     ethr =  1.46E-11,  avg # of iterations =  2.0

     negative rho (up, down):  9.824E-03 0.000E+00

     total cpu time spent up to now is      214.4 secs

     End of self-consistent calculation

          k = 0.0000 0.0000 0.0000 ( 61161 PWs)   bands (ev):

   -31.3864 -13.9161 -13.1693 -13.1692  -8.6167  -0.4287  -0.4287  -0.2735
     0.4612

     the Fermi energy is    -6.1401 ev

!    total energy              =     -52.81375926 Ry
     estimated scf accuracy    <          5.4E-11 Ry
     smearing contrib. (-TS)   =       0.00000000 Ry
     internal energy E=F+TS    =     -52.81375926 Ry

     The total energy is F=E-TS. E is the sum of the following terms:
     one-electron contribution =     -95.71994015 Ry
     hartree contribution      =      48.98342383 Ry
     xc contribution           =     -10.90399426 Ry
     ewald contribution        =      14.42874696 Ry
     Dispersion Correction     =      -0.00000377 Ry
     one-center paw contrib.   =      -9.60199188 Ry

     convergence has been achieved in  13 iterations

     negative rho (up, down):  9.824E-03 0.000E+00

     Forces acting on atoms (cartesian axes, Ry/au):

     atom    1 type  1   force =    -1.17985217    0.00000067   -0.00000052
     atom    2 type  2   force =     1.17985217   -0.00000067    0.00000052

     Total force =     1.179852     Total SCF correction =     0.000019
     Energy error            =      3.5E-01 Ry
     Gradient error          =      1.2E+00 Ry/Bohr

     number of scf cycles    =   5
     number of bfgs steps    =   4

     energy             old  =     -52.4678724738 Ry
     energy             new  =     -52.8137592626 Ry

     CASE: energy            _new < energy            _old

     new trust radius        =       0.1408817480 bohr
     new conv_thr            =            1.0E-10 Ry


ATOMIC_POSITIONS (angstrom)
C             0.0000000000        0.0000000000        0.0000000000    0   0   0
O             1.0604632301        0.0000000000        0.0000000000    1   0   0



     Writing config-only to output data dir ./pwscf.save/
     NEW-OLD atomic charge density approx. for the potential

     negative rho (up, down):  9.250E-03 0.000E+00

     total cpu time spent up to now is      216.8 secs

     Self-consistent Calculation

     iteration #  1     ecut=    60.00 Ry     beta= 0.50
     Davidson diagonalization with overlap
     ethr =  1.00E-06,  avg # of iterations = 18.0

     negative rho (up, down):  9.250E-03 0.000E+00

     total cpu time spent up to now is      221.9 secs

     total energy              =     -52.92359322 Ry
     estimated scf accuracy    <       0.01922039 Ry

     iteration #  2     ecut=    60.00 Ry     beta= 0.50
     Davidson diagonalization with overlap
     ethr =  1.92E-04,  avg # of iterations =  2.0

     negative rho (up, down):  9.264E-03 0.000E+00

     total cpu time spent up to now is      223.9 secs

     total energy              =     -52.92565067 Ry
     estimated scf accuracy    <       0.00313391 Ry

     iteration #  3     ecut=    60.00 Ry     beta= 0.50
     Davidson diagonalization with overlap
     ethr =  3.13E-05,  avg # of iterations =  2.0

     negative rho (up, down):  9.353E-03 0.000E+00

     total cpu time spent up to now is      225.9 secs

     total energy              =     -52.92633734 Ry
     estimated scf accuracy    <       0.00061653 Ry

     iteration #  4     ecut=    60.00 Ry     beta= 0.50
     Davidson diagonalization with overlap
     ethr =  6.17E-06,  avg # of iterations =  4.0

     negative rho (up, down):  9.426E-03 0.000E+00

     total cpu time spent up to now is      228.2 secs

     total energy              =     -52.92652626 Ry
     estimated scf accuracy    <       0.00012672 Ry

     iteration #  5     ecut=    60.00 Ry     beta= 0.50
     Davidson diagonalization with overlap
     ethr =  1.27E-06,  avg # of iterations =  2.0

     negative rho (up, down):  9.432E-03 0.000E+00

     total cpu time spent up to now is      230.2 secs

     total energy              =     -52.92656690 Ry
     estimated scf accuracy    <       0.00002988 Ry

     iteration #  6     ecut=    60.00 Ry     beta= 0.50
     Davidson diagonalization with overlap
     ethr =  2.99E-07,  avg # of iterations =  4.0

     negative rho (up, down):  9.431E-03 0.000E+00

     total cpu time spent up to now is      232.4 secs

     total energy              =     -52.92657881 Ry
     estimated scf accuracy    <       0.00000443 Ry

     iteration #  7     ecut=    60.00 Ry     beta= 0.50
     Davidson diagonalization with overlap
     ethr =  4.43E-08,  avg # of iterations =  3.0

     negative rho (up, down):  9.433E-03 0.000E+00

     total cpu time spent up to now is      234.5 secs

     total energy              =     -52.92658008 Ry
     estimated scf accuracy    <       0.00000072 Ry

     iteration #  8     ecut=    60.00 Ry     beta= 0.50
     Davidson diagonalization with overlap
     ethr =  7.17E-09,  avg # of iterations =  4.0

     negative rho (up, down):  9.435E-03 0.000E+00

     total cpu time spent up to now is      236.7 secs

     total energy              =     -52.92658011 Ry
     estimated scf accuracy    <       0.00000035 Ry

     iteration #  9     ecut=    60.00 Ry     beta= 0.50
     Davidson diagonalization with overlap
     ethr =  3.48E-09,  avg # of iterations =  4.0

     negative rho (up, down):  9.435E-03 0.000E+00

     total cpu time spent up to now is      238.9 secs

     total energy              =     -52.92658020 Ry
     estimated scf accuracy    <       0.00000001 Ry

     iteration # 10     ecut=    60.00 Ry     beta= 0.50
     Davidson diagonalization with overlap
     ethr =  1.01E-10,  avg # of iterations =  4.0

     negative rho (up, down):  9.435E-03 0.000E+00

     total cpu time spent up to now is      241.3 secs

     total energy              =     -52.92658021 Ry
     estimated scf accuracy    <          5.1E-09 Ry

     iteration # 11     ecut=    60.00 Ry     beta= 0.50
     Davidson diagonalization with overlap
     ethr =  5.06E-11,  avg # of iterations =  2.0

     negative rho (up, down):  9.435E-03 0.000E+00

     total cpu time spent up to now is      243.3 secs

     total energy              =     -52.92658021 Ry
     estimated scf accuracy    <          9.4E-10 Ry

     iteration # 12     ecut=    60.00 Ry     beta= 0.50
     Davidson diagonalization with overlap
     ethr =  9.39E-12,  avg # of iterations =  4.0

     negative rho (up, down):  9.435E-03 0.000E+00

     total cpu time spent up to now is      245.7 secs

     total energy              =     -52.92658021 Ry
     estimated scf accuracy    <          4.6E-10 Ry

     iteration # 13     ecut=    60.00 Ry     beta= 0.50
     Davidson diagonalization with overlap
     ethr =  4.57E-12,  avg # of iterations =  2.0

     negative rho (up, down):  9.435E-03 0.000E+00

     total cpu time spent up to now is      247.6 secs

     End of self-consistent calculation

          k = 0.0000 0.0000 0.0000 ( 61161 PWs)   bands (ev):

   -30.3134 -13.9675 -12.4037 -12.4036  -8.8033  -1.2217  -1.2217  -0.2651
     0.4669

     the Fermi energy is    -5.8676 ev

!    total energy              =     -52.92658021 Ry
     estimated scf accuracy    <          2.7E-11 Ry
     smearing contrib. (-TS)   =       0.00000000 Ry
     internal energy E=F+TS    =     -52.92658021 Ry

     The total energy is F=E-TS. E is the sum of the following terms:
     one-electron contribution =     -92.81167923 Ry
     hartree contribution      =      47.58517742 Ry
     xc contribution           =     -10.72280082 Ry
     ewald contribution        =      12.62113013 Ry
     Dispersion Correction     =      -0.00000394 Ry
     one-center paw contrib.   =      -9.59840377 Ry

     convergence has been achieved in  13 iterations

     negative rho (up, down):  9.435E-03 0.000E+00

     Forces acting on atoms (cartesian axes, Ry/au):

     atom    1 type  1   force =    -0.47551737   -0.00000041   -0.00000009
     atom    2 type  2   force =     0.47551737    0.00000041    0.00000009

     Total force =     0.475517     Total SCF correction =     0.000006
     Energy error            =      1.1E-01 Ry
     Gradient error          =      4.8E-01 Ry/Bohr

     number of scf cycles    =   6
     number of bfgs steps    =   5

     energy             old  =     -52.8137592626 Ry
     energy             new  =     -52.9265802141 Ry

     CASE: energy            _new < energy            _old

     new trust radius        =       0.0951134590 bohr
     new conv_thr            =            1.0E-10 Ry


ATOMIC_POSITIONS (angstrom)
C             0.0000000000        0.0000000000        0.0000000000    0   0   0
O             1.1107951051        0.0000000000        0.0000000000    1   0   0



     Writing config-only to output data dir ./pwscf.save/
     NEW-OLD atomic charge density approx. for the potential

     negative rho (up, down):  9.505E-03 0.000E+00

     total cpu time spent up to now is      250.0 secs

     Self-consistent Calculation

     iteration #  1     ecut=    60.00 Ry     beta= 0.50
     Davidson diagonalization with overlap
     ethr =  1.00E-06,  avg # of iterations = 14.0

     negative rho (up, down):  9.323E-03 0.000E+00

     total cpu time spent up to now is      254.3 secs

     total energy              =     -52.95482292 Ry
     estimated scf accuracy    <       0.00667931 Ry

     iteration #  2     ecut=    60.00 Ry     beta= 0.50
     Davidson diagonalization with overlap
     ethr =  6.68E-05,  avg # of iterations =  2.0

     negative rho (up, down):  9.235E-03 0.000E+00

     total cpu time spent up to now is      256.3 secs

     total energy              =     -52.95543943 Ry
     estimated scf accuracy    <       0.00146846 Ry

     iteration #  3     ecut=    60.00 Ry     beta= 0.50
     Davidson diagonalization with overlap
     ethr =  1.47E-05,  avg # of iterations =  2.0

     negative rho (up, down):  9.225E-03 0.000E+00

     total cpu time spent up to now is      258.2 secs

     total energy              =     -52.95575277 Ry
     estimated scf accuracy    <       0.00030283 Ry

     iteration #  4     ecut=    60.00 Ry     beta= 0.50
     Davidson diagonalization with overlap
     ethr =  3.03E-06,  avg # of iterations =  4.0

     negative rho (up, down):  9.236E-03 0.000E+00

     total cpu time spent up to now is      260.4 secs

     total energy              =     -52.95590166 Ry
     estimated scf accuracy    <       0.00007142 Ry

     iteration #  5     ecut=    60.00 Ry     beta= 0.50
     Davidson diagonalization with overlap
     ethr =  7.14E-07,  avg # of iterations =  2.0

     negative rho (up, down):  9.231E-03 0.000E+00

     total cpu time spent up to now is      262.4 secs

     total energy              =     -52.95591208 Ry
     estimated scf accuracy    <       0.00000996 Ry

     iteration #  6     ecut=    60.00 Ry     beta= 0.50
     Davidson diagonalization with overlap
     ethr =  9.96E-08,  avg # of iterations =  4.0

     negative rho (up, down):  9.224E-03 0.000E+00

     total cpu time spent up to now is      264.6 secs

     total energy              =     -52.95591822 Ry
     estimated scf accuracy    <       0.00000366 Ry

     iteration #  7     ecut=    60.00 Ry     beta= 0.50
     Davidson diagonalization with overlap
     ethr =  3.66E-08,  avg # of iterations =  2.0

     negative rho (up, down):  9.221E-03 0.000E+00

     total cpu time spent up to now is      266.6 secs

     total energy              =     -52.95591900 Ry
     estimated scf accuracy    <       0.00000006 Ry

     iteration #  8     ecut=    60.00 Ry     beta= 0.50
     Davidson diagonalization with overlap
     ethr =  5.91E-10,  avg # of iterations =  7.0

     negative rho (up, down):  9.222E-03 0.000E+00

     total cpu time spent up to now is      269.6 secs

     total energy              =     -52.95591917 Ry
     estimated scf accuracy    <       0.00000070 Ry

     iteration #  9     ecut=    60.00 Ry     beta= 0.50
     Davidson diagonalization with overlap
     ethr =  5.91E-10,  avg # of iterations =  4.0

     negative rho (up, down):  9.223E-03 0.000E+00

     total cpu time spent up to now is      272.0 secs

     total energy              =     -52.95591920 Ry
     estimated scf accuracy    <       0.00000006 Ry

     iteration # 10     ecut=    60.00 Ry     beta= 0.50
     Davidson diagonalization with overlap
     ethr =  5.85E-10,  avg # of iterations =  2.0

     negative rho (up, down):  9.223E-03 0.000E+00

     total cpu time spent up to now is      273.9 secs

     total energy              =     -52.95591921 Ry
     estimated scf accuracy    <          3.2E-09 Ry

     iteration # 11     ecut=    60.00 Ry     beta= 0.50
     Davidson diagonalization with overlap
     ethr =  3.15E-11,  avg # of iterations =  4.0

     negative rho (up, down):  9.223E-03 0.000E+00

     total cpu time spent up to now is      276.3 secs

     total energy              =     -52.95591921 Ry
     estimated scf accuracy    <          5.2E-09 Ry

     iteration # 12     ecut=    60.00 Ry     beta= 0.50
     Davidson diagonalization with overlap
     ethr =  3.15E-11,  avg # of iterations =  1.0

     negative rho (up, down):  9.223E-03 0.000E+00

     total cpu time spent up to now is      278.2 secs

     total energy              =     -52.95591921 Ry
     estimated scf accuracy    <          1.6E-09 Ry

     iteration # 13     ecut=    60.00 Ry     beta= 0.50
     Davidson diagonalization with overlap
     ethr =  1.57E-11,  avg # of iterations =  4.0

     negative rho (up, down):  9.223E-03 0.000E+00

     total cpu time spent up to now is      280.5 secs

     total energy              =     -52.95591921 Ry
     estimated scf accuracy    <          1.4E-10 Ry

     iteration # 14     ecut=    60.00 Ry     beta= 0.50
     Davidson diagonalization with overlap
     ethr =  1.36E-12,  avg # of iterations =  3.0

     negative rho (up, down):  9.223E-03 0.000E+00

     total cpu time spent up to now is      282.4 secs

     End of self-consistent calculation

          k = 0.0000 0.0000 0.0000 ( 61161 PWs)   bands (ev):

   -29.5803 -13.9974 -11.9355 -11.9355  -8.9204  -1.7392  -1.7392  -0.2614
     0.4689

     the Fermi energy is    -5.6828 ev

!    total energy              =     -52.95591921 Ry
     estimated scf accuracy    <          3.1E-11 Ry
     smearing contrib. (-TS)   =       0.00000000 Ry
     internal energy E=F+TS    =     -52.95591921 Ry

     The total energy is F=E-TS. E is the sum of the following terms:
     one-electron contribution =     -91.00627698 Ry
     hartree contribution      =      46.72465654 Ry
     xc contribution           =     -10.61563478 Ry
     ewald contribution        =      11.53838166 Ry
     Dispersion Correction     =      -0.00000410 Ry
     one-center paw contrib.   =      -9.59704155 Ry

     convergence has been achieved in  14 iterations

     negative rho (up, down):  9.223E-03 0.000E+00

     Forces acting on atoms (cartesian axes, Ry/au):

     atom    1 type  1   force =    -0.15815008   -0.00000003    0.00000001
     atom    2 type  2   force =     0.15815008    0.00000003   -0.00000001

     Total force =     0.158150     Total SCF correction =     0.000014
     Energy error            =      2.9E-02 Ry
     Gradient error          =      1.6E-01 Ry/Bohr

     number of scf cycles    =   7
     number of bfgs steps    =   6

     energy             old  =     -52.9265802141 Ry
     energy             new  =     -52.9559192136 Ry

     CASE: energy            _new < energy            _old

     new trust radius        =       0.0473968213 bohr
     new conv_thr            =            1.0E-10 Ry


ATOMIC_POSITIONS (angstrom)
C             0.0000000000        0.0000000000        0.0000000000    0   0   0
O             1.1358764228        0.0000000000        0.0000000000    1   0   0



     Writing config-only to output data dir ./pwscf.save/
     NEW-OLD atomic charge density approx. for the potential

     negative rho (up, down):  9.415E-03 0.000E+00

     total cpu time spent up to now is      284.8 secs

     Self-consistent Calculation

     iteration #  1     ecut=    60.00 Ry     beta= 0.50
     Davidson diagonalization with overlap
     ethr =  1.00E-06,  avg # of iterations = 10.0

     negative rho (up, down):  9.252E-03 0.000E+00

     total cpu time spent up to now is      288.3 secs

     total energy              =     -52.96021981 Ry
     estimated scf accuracy    <       0.00138387 Ry

     iteration #  2     ecut=    60.00 Ry     beta= 0.50
     Davidson diagonalization with overlap
     ethr =  1.38E-05,  avg # of iterations =  2.0

     negative rho (up, down):  9.175E-03 0.000E+00

     total cpu time spent up to now is      290.2 secs

     total energy              =     -52.96033132 Ry
     estimated scf accuracy    <       0.00033075 Ry

     iteration #  3     ecut=    60.00 Ry     beta= 0.50
     Davidson diagonalization with overlap
     ethr =  3.31E-06,  avg # of iterations =  2.0

     negative rho (up, down):  9.141E-03 0.000E+00

     total cpu time spent up to now is      292.2 secs

     total energy              =     -52.96040312 Ry
     estimated scf accuracy    <       0.00007838 Ry

     iteration #  4     ecut=    60.00 Ry     beta= 0.50
     Davidson diagonalization with overlap
     ethr =  7.84E-07,  avg # of iterations =  4.0

     negative rho (up, down):  9.140E-03 0.000E+00

     total cpu time spent up to now is      294.3 secs

     total energy              =     -52.96044311 Ry
     estimated scf accuracy    <       0.00001844 Ry

     iteration #  5     ecut=    60.00 Ry     beta= 0.50
     Davidson diagonalization with overlap
     ethr =  1.84E-07,  avg # of iterations =  2.0

     negative rho (up, down):  9.122E-03 0.000E+00

     total cpu time spent up to now is      296.3 secs

     total energy              =     -52.96044463 Ry
     estimated scf accuracy    <       0.00000319 Ry

     iteration #  6     ecut=    60.00 Ry     beta= 0.50
     Davidson diagonalization with overlap
     ethr =  3.19E-08,  avg # of iterations =  4.0

     negative rho (up, down):  9.116E-03 0.000E+00

     total cpu time spent up to now is      298.5 secs

     total energy              =     -52.96044649 Ry
     estimated scf accuracy    <       0.00000076 Ry

     iteration #  7     ecut=    60.00 Ry     beta= 0.50
     Davidson diagonalization with overlap
     ethr =  7.63E-09,  avg # of iterations =  4.0

     negative rho (up, down):  9.115E-03 0.000E+00

     total cpu time spent up to now is      300.7 secs

     total energy              =     -52.96044670 Ry
     estimated scf accuracy    <       0.00000003 Ry

     iteration #  8     ecut=    60.00 Ry     beta= 0.50
     Davidson diagonalization with overlap
     ethr =  3.09E-10,  avg # of iterations =  4.0

     negative rho (up, down):  9.115E-03 0.000E+00

     total cpu time spent up to now is      303.0 secs

     total energy              =     -52.96044677 Ry
     estimated scf accuracy    <       0.00000003 Ry

     iteration #  9     ecut=    60.00 Ry     beta= 0.50
     Davidson diagonalization with overlap
     ethr =  3.09E-10,  avg # of iterations =  1.0

     negative rho (up, down):  9.115E-03 0.000E+00

     total cpu time spent up to now is      304.9 secs

     total energy              =     -52.96044677 Ry
     estimated scf accuracy    <          8.1E-09 Ry

     iteration # 10     ecut=    60.00 Ry     beta= 0.50
     Davidson diagonalization with overlap
     ethr =  8.10E-11,  avg # of iterations =  4.0

     negative rho (up, down):  9.115E-03 0.000E+00

     total cpu time spent up to now is      307.3 secs

     total energy              =     -52.96044678 Ry
     estimated scf accuracy    <          5.7E-09 Ry

     iteration # 11     ecut=    60.00 Ry     beta= 0.50
     Davidson diagonalization with overlap
     ethr =  5.66E-11,  avg # of iterations =  1.0

     negative rho (up, down):  9.115E-03 0.000E+00

     total cpu time spent up to now is      309.2 secs

     total energy              =     -52.96044677 Ry
     estimated scf accuracy    <          3.3E-09 Ry

     iteration # 12     ecut=    60.00 Ry     beta= 0.50
     Davidson diagonalization with overlap
     ethr =  3.32E-11,  avg # of iterations =  2.0

     negative rho (up, down):  9.115E-03 0.000E+00

     total cpu time spent up to now is      311.1 secs

     End of self-consistent calculation

          k = 0.0000 0.0000 0.0000 ( 61161 PWs)   bands (ev):

   -29.2186 -14.0125 -11.7154 -11.7154  -8.9755  -1.9854  -1.9854  -0.2598
     0.4691

     the Fermi energy is    -5.5923 ev

!    total energy              =     -52.96044677 Ry
     estimated scf accuracy    <          6.6E-11 Ry
     smearing contrib. (-TS)   =       0.00000000 Ry
     internal energy E=F+TS    =     -52.96044677 Ry

     The total energy is F=E-TS. E is the sum of the following terms:
     one-electron contribution =     -90.15113168 Ry
     hartree contribution      =      46.31884623 Ry
     xc contribution           =     -10.56632945 Ry
     ewald contribution        =      11.03478106 Ry
     Dispersion Correction     =      -0.00000419 Ry
     one-center paw contrib.   =      -9.59660875 Ry

     convergence has been achieved in  12 iterations

     negative rho (up, down):  9.115E-03 0.000E+00

     Forces acting on atoms (cartesian axes, Ry/au):

     atom    1 type  1   force =    -0.03564763    0.00000128    0.00000057
     atom    2 type  2   force =     0.03564763   -0.00000128   -0.00000057

     Total force =     0.035648     Total SCF correction =     0.000017
     Energy error            =      4.5E-03 Ry
     Gradient error          =      3.6E-02 Ry/Bohr

     number of scf cycles    =   8
     number of bfgs steps    =   7

     energy             old  =     -52.9559192136 Ry
     energy             new  =     -52.9604467740 Ry

     CASE: energy            _new < energy            _old

     new trust radius        =       0.0137922511 bohr
     new conv_thr            =            3.6E-11 Ry


ATOMIC_POSITIONS (angstrom)
C             0.0000000000        0.0000000000        0.0000000000    0   0   0
O             1.1431749678        0.0000000000        0.0000000000    1   0   0



     Writing config-only to output data dir ./pwscf.save/
     NEW-OLD atomic charge density approx. for the potential

     negative rho (up, down):  9.194E-03 0.000E+00

     total cpu time spent up to now is      313.5 secs

     Self-consistent Calculation

     iteration #  1     ecut=    60.00 Ry     beta= 0.50
     Davidson diagonalization with overlap
     ethr =  1.00E-06,  avg # of iterations =  5.0

     negative rho (up, down):  9.136E-03 0.000E+00

     total cpu time spent up to now is      316.1 secs

     total energy              =     -52.96070501 Ry
     estimated scf accuracy    <       0.00010572 Ry

     iteration #  2     ecut=    60.00 Ry     beta= 0.50
     Davidson diagonalization with overlap
     ethr =  1.06E-06,  avg # of iterations =  2.0

     negative rho (up, down):  9.108E-03 0.000E+00

     total cpu time spent up to now is      318.0 secs

     total energy              =     -52.96071258 Ry
     estimated scf accuracy    <       0.00002386 Ry

     iteration #  3     ecut=    60.00 Ry     beta= 0.50
     Davidson diagonalization with overlap
     ethr =  2.39E-07,  avg # of iterations =  2.0

     negative rho (up, down):  9.096E-03 0.000E+00

     total cpu time spent up to now is      320.0 secs

     total energy              =     -52.96071990 Ry
     estimated scf accuracy    <       0.00000930 Ry

     iteration #  4     ecut=    60.00 Ry     beta= 0.50
     Davidson diagonalization with overlap
     ethr =  9.30E-08,  avg # of iterations =  1.0

     negative rho (up, down):  9.086E-03 0.000E+00

     total cpu time spent up to now is      321.9 secs

     total energy              =     -52.96072117 Ry
     estimated scf accuracy    <       0.00000048 Ry

     iteration #  5     ecut=    60.00 Ry     beta= 0.50
     Davidson diagonalization with overlap
     ethr =  4.76E-09,  avg # of iterations =  4.0

     negative rho (up, down):  9.084E-03 0.000E+00

     total cpu time spent up to now is      324.1 secs

     total energy              =     -52.96072152 Ry
     estimated scf accuracy    <       0.00000017 Ry

     iteration #  6     ecut=    60.00 Ry     beta= 0.50
     Davidson diagonalization with overlap
     ethr =  1.72E-09,  avg # of iterations =  2.0

     negative rho (up, down):  9.083E-03 0.000E+00

     total cpu time spent up to now is      326.1 secs

     total energy              =     -52.96072154 Ry
     estimated scf accuracy    <       0.00000001 Ry

     iteration #  7     ecut=    60.00 Ry     beta= 0.50
     Davidson diagonalization with overlap
     ethr =  1.47E-10,  avg # of iterations =  4.0

     negative rho (up, down):  9.083E-03 0.000E+00

     total cpu time spent up to now is      328.4 secs

     total energy              =     -52.96072155 Ry
     estimated scf accuracy    <          2.5E-09 Ry

     iteration #  8     ecut=    60.00 Ry     beta= 0.50
     Davidson diagonalization with overlap
     ethr =  2.49E-11,  avg # of iterations =  1.0

     negative rho (up, down):  9.083E-03 0.000E+00

     total cpu time spent up to now is      330.5 secs

     total energy              =     -52.96072154 Ry
     estimated scf accuracy    <          1.5E-10 Ry

     iteration #  9     ecut=    60.00 Ry     beta= 0.50
     Davidson diagonalization with overlap
     ethr =  1.51E-12,  avg # of iterations =  4.0

     negative rho (up, down):  9.083E-03 0.000E+00

     total cpu time spent up to now is      333.1 secs

     total energy              =     -52.96072154 Ry
     estimated scf accuracy    <          2.3E-10 Ry

     iteration # 10     ecut=    60.00 Ry     beta= 0.50
     Davidson diagonalization with overlap
     ethr =  1.51E-12,  avg # of iterations =  1.0

     negative rho (up, down):  9.083E-03 0.000E+00

     total cpu time spent up to now is      335.0 secs

     total energy              =     -52.96072154 Ry
     estimated scf accuracy    <          3.8E-11 Ry

     iteration # 11     ecut=    60.00 Ry     beta= 0.50
     Davidson diagonalization with overlap
     ethr =  3.77E-13,  avg # of iterations =  3.0

     negative rho (up, down):  9.083E-03 0.000E+00

     total cpu time spent up to now is      337.0 secs

     End of self-consistent calculation

          k = 0.0000 0.0000 0.0000 ( 61161 PWs)   bands (ev):

   -29.1140 -14.0169 -11.6529 -11.6529  -8.9910  -2.0554  -2.0554  -0.2594
     0.4690

     the Fermi energy is    -5.5662 ev

!    total energy              =     -52.96072154 Ry
     estimated scf accuracy    <          8.6E-12 Ry
     smearing contrib. (-TS)   =       0.00000000 Ry
     internal energy E=F+TS    =     -52.96072154 Ry

     The total energy is F=E-TS. E is the sum of the following terms:
     one-electron contribution =     -89.90768699 Ry
     hartree contribution      =      46.20355138 Ry
     xc contribution           =     -10.55247480 Ry
     ewald contribution        =      10.89240321 Ry
     Dispersion Correction     =      -0.00000422 Ry
     one-center paw contrib.   =      -9.59651012 Ry

     convergence has been achieved in  11 iterations

     negative rho (up, down):  9.083E-03 0.000E+00

     Forces acting on atoms (cartesian axes, Ry/au):

     atom    1 type  1   force =    -0.00372887   -0.00000003    0.00000047
     atom    2 type  2   force =     0.00372887    0.00000003   -0.00000047

     Total force =     0.003729     Total SCF correction =     0.000006
     Energy error            =      2.7E-04 Ry
     Gradient error          =      3.7E-03 Ry/Bohr

     number of scf cycles    =   9
     number of bfgs steps    =   8

     energy             old  =     -52.9604467740 Ry
     energy             new  =     -52.9607215436 Ry

     CASE: energy            _new < energy            _old

     new trust radius        =       0.0016112636 bohr
     new conv_thr            =            2.7E-12 Ry


ATOMIC_POSITIONS (angstrom)
C             0.0000000000        0.0000000000        0.0000000000    0   0   0
O             1.1440276117        0.0000000000        0.0000000000    1   0   0



     Writing config-only to output data dir ./pwscf.save/
     NEW-OLD atomic charge density approx. for the potential

     negative rho (up, down):  9.093E-03 0.000E+00

     total cpu time spent up to now is      339.4 secs

     Self-consistent Calculation

     iteration #  1     ecut=    60.00 Ry     beta= 0.50
     Davidson diagonalization with overlap
     ethr =  1.00E-06,  avg # of iterations =  2.0

     Threshold (ethr) on eigenvalues was too large:
     Diagonalizing with lowered threshold

     Davidson diagonalization with overlap
     ethr =  7.72E-09,  avg # of iterations =  4.0

     negative rho (up, down):  9.085E-03 0.000E+00

     total cpu time spent up to now is      342.9 secs

     total energy              =     -52.96072506 Ry
     estimated scf accuracy    <       0.00000136 Ry

     iteration #  2     ecut=    60.00 Ry     beta= 0.50
     Davidson diagonalization with overlap
     ethr =  1.36E-08,  avg # of iterations =  2.0

     negative rho (up, down):  9.082E-03 0.000E+00

     total cpu time spent up to now is      344.8 secs

     total energy              =     -52.96072515 Ry
     estimated scf accuracy    <       0.00000026 Ry

     iteration #  3     ecut=    60.00 Ry     beta= 0.50
     Davidson diagonalization with overlap
     ethr =  2.64E-09,  avg # of iterations =  2.0

     negative rho (up, down):  9.081E-03 0.000E+00

     total cpu time spent up to now is      346.8 secs

     total energy              =     -52.96072524 Ry
     estimated scf accuracy    <       0.00000014 Ry

     iteration #  4     ecut=    60.00 Ry     beta= 0.50
     Davidson diagonalization with overlap
     ethr =  1.42E-09,  avg # of iterations =  1.0

     negative rho (up, down):  9.079E-03 0.000E+00

     total cpu time spent up to now is      348.7 secs

     total energy              =     -52.96072525 Ry
     estimated scf accuracy    <          9.8E-09 Ry

     iteration #  5     ecut=    60.00 Ry     beta= 0.50
     Davidson diagonalization with overlap
     ethr =  9.82E-11,  avg # of iterations =  4.0

     negative rho (up, down):  9.079E-03 0.000E+00

     total cpu time spent up to now is      351.0 secs

     total energy              =     -52.96072526 Ry
     estimated scf accuracy    <          4.7E-09 Ry

     iteration #  6     ecut=    60.00 Ry     beta= 0.50
     Davidson diagonalization with overlap
     ethr =  4.68E-11,  avg # of iterations =  1.0

     negative rho (up, down):  9.079E-03 0.000E+00

     total cpu time spent up to now is      352.9 secs

     total energy              =     -52.96072526 Ry
     estimated scf accuracy    <          4.7E-10 Ry

     iteration #  7     ecut=    60.00 Ry     beta= 0.50
     Davidson diagonalization with overlap
     ethr =  4.70E-12,  avg # of iterations =  4.0

     negative rho (up, down):  9.079E-03 0.000E+00

     total cpu time spent up to now is      355.1 secs

     total energy              =     -52.96072526 Ry
     estimated scf accuracy    <          3.9E-10 Ry

     iteration #  8     ecut=    60.00 Ry     beta= 0.50
     Davidson diagonalization with overlap
     ethr =  3.95E-12,  avg # of iterations =  2.0

     negative rho (up, down):  9.079E-03 0.000E+00

     total cpu time spent up to now is      357.1 secs

     total energy              =     -52.96072526 Ry
     estimated scf accuracy    <          6.7E-11 Ry

     iteration #  9     ecut=    60.00 Ry     beta= 0.50
     Davidson diagonalization with overlap
     ethr =  6.67E-13,  avg # of iterations =  4.0

     negative rho (up, down):  9.079E-03 0.000E+00

     total cpu time spent up to now is      359.5 secs

     total energy              =     -52.96072526 Ry
     estimated scf accuracy    <          3.5E-11 Ry

     iteration # 10     ecut=    60.00 Ry     beta= 0.50
     Davidson diagonalization with overlap
     ethr =  3.50E-13,  avg # of iterations =  1.0

     negative rho (up, down):  9.079E-03 0.000E+00

     total cpu time spent up to now is      361.4 secs

     total energy              =     -52.96072526 Ry
     estimated scf accuracy    <          8.0E-12 Ry

     iteration # 11     ecut=    60.00 Ry     beta= 0.50
     Davidson diagonalization with overlap
     ethr =  1.00E-13,  avg # of iterations =  2.0

     negative rho (up, down):  9.079E-03 0.000E+00

     total cpu time spent up to now is      363.3 secs

     End of self-consistent calculation

          k = 0.0000 0.0000 0.0000 ( 61161 PWs)   bands (ev):

   -29.1018 -14.0175 -11.6456 -11.6456  -8.9928  -2.0635  -2.0635  -0.2594
     0.4689

     the Fermi energy is    -5.5632 ev

!    total energy              =     -52.96072526 Ry
     estimated scf accuracy    <          7.9E-13 Ry
     smearing contrib. (-TS)   =       0.00000000 Ry
     internal energy E=F+TS    =     -52.96072526 Ry

     The total energy is F=E-TS. E is the sum of the following terms:
     one-electron contribution =     -89.87937926 Ry
     hartree contribution      =      46.19013327 Ry
     xc contribution           =     -10.55086501 Ry
     ewald contribution        =      10.87588909 Ry
     Dispersion Correction     =      -0.00000422 Ry
     one-center paw contrib.   =      -9.59649913 Ry

     convergence has been achieved in  11 iterations

     negative rho (up, down):  9.079E-03 0.000E+00

     Forces acting on atoms (cartesian axes, Ry/au):

     atom    1 type  1   force =    -0.00010967    0.00000011   -0.00000011
     atom    2 type  2   force =     0.00010967   -0.00000011    0.00000011

     Total force =     0.000110     Total SCF correction =     0.000001
     Energy error            =      3.7E-06 Ry
     Gradient error          =      1.1E-04 Ry/Bohr

     bfgs converged in  10 scf cycles and   9 bfgs steps
     (criteria: energy <  1.0E-04 Ry, force <  1.0E-03 Ry/Bohr)

     End of BFGS Geometry Optimization

     Final energy             =     -52.9607252588 Ry

     File ./pwscf.bfgs deleted, as requested
Begin final coordinates

ATOMIC_POSITIONS (angstrom)
C             0.0000000000        0.0000000000        0.0000000000    0   0   0
O             1.1440276117        0.0000000000        0.0000000000    1   0   0
End final coordinates



     Writing all to output data dir ./pwscf.save/

     init_run     :      2.87s CPU      2.68s WALL (       1 calls)
     electrons    :    675.42s CPU    340.09s WALL (      10 calls)
     update_pot   :      6.55s CPU      7.22s WALL (       9 calls)
     forces       :     17.21s CPU     10.99s WALL (      10 calls)
     force_london :      0.00s CPU      0.00s WALL (      10 calls)

     Called by init_run:
     wfcinit      :      0.95s CPU      0.68s WALL (       1 calls)
     potinit      :      0.55s CPU      0.63s WALL (       1 calls)
     hinit0       :      0.94s CPU      0.98s WALL (       1 calls)

     Called by electrons:
     c_bands      :    343.16s CPU    145.06s WALL (     148 calls)
     sum_band     :    198.61s CPU     72.26s WALL (     148 calls)
     v_of_rho     :     67.86s CPU     72.80s WALL (     157 calls)
     newd         :     46.31s CPU     35.92s WALL (     157 calls)
     PAW_pot      :      4.55s CPU      3.47s WALL (     166 calls)
     mix_rho      :     17.17s CPU     15.12s WALL (     148 calls)
     energy_londo :      0.06s CPU      0.01s WALL (      10 calls)

     Called by c_bands:
     init_us_2    :     14.90s CPU      3.71s WALL (     306 calls)
     init_us_2:cp :     14.90s CPU      3.71s WALL (     306 calls)
     regterg      :    328.64s CPU    141.40s WALL (     148 calls)

     Called by *egterg:
     rdiaghg      :      0.56s CPU      0.10s WALL (     674 calls)
     h_psi        :    267.52s CPU    130.86s WALL (     685 calls)
     s_psi        :      2.69s CPU      0.46s WALL (     685 calls)
     g_psi        :      4.87s CPU      1.08s WALL (     536 calls)

     Called by h_psi:
     h_psi:calbec :      8.15s CPU      1.64s WALL (     685 calls)
     vloc_psi     :    253.90s CPU    128.11s WALL (     685 calls)
     add_vuspsi   :      2.90s CPU      0.50s WALL (     685 calls)

     General routines
     calbec       :     12.45s CPU      2.40s WALL (     882 calls)
     fft          :     51.91s CPU     47.40s WALL (    1513 calls)
     ffts         :     40.53s CPU      9.85s WALL (     148 calls)
     fftw         :    269.09s CPU    133.78s WALL (    5320 calls)

     Parallel routines

     PWSCF        :  11m48.21s CPU   6m 4.77s WALL


   This run was terminated on:  15: 0:21   5Sep2022            

=------------------------------------------------------------------------------=
   JOB DONE.
=------------------------------------------------------------------------------=
