6
Lattice="3.9111732301689224 0.0 0.0 0.0 3.9111732301689224 0.0 0.0 0.0 3.9111732301689224" Properties=species:S:1:pos:R:3 #=T CELL(abcABC):=T 3.91117=T 90.00000=T Step:=T 1975600=T Bead:=T 0=T x_centroidangstrom=T cellangstrom=T count=0 pbc="T T T"
H        2.55799292       0.30476323       0.67883354
H        1.46739292       0.53584100       3.59015677
O        1.78619292       3.82685646       0.31171354
H        3.52058031       2.55936677       2.71091323
H        0.84863385       2.05009677       1.85452646
O        0.09813385       1.75660677       2.33837646
