32
Lattice="7.199999999999999 0.0 0.0 0.0 7.199999999999999 0.0 0.0 0.0 7.199999999999999" Properties=species:S:1:pos:R:3 ipi_comment="Step:         100  Bead:       0 positions{ase}  cell{ase}" pbc="T T T"
Al      -1.85390496      -0.95982674       1.97725575
Al       2.86261250       3.15898022       0.57331454
Al      -0.72359428      -2.62713427       3.64623439
Al       4.29563893       1.35474805       1.94203711
Al      -2.25383976      -0.51040542       6.71325518
Al       1.03395315       1.04071714       4.46807275
Al       0.93046776       1.41776842       6.93069925
Al       3.21332631       3.13251253       3.29654208
Ni       0.43653416       4.39201704      -1.17541302
Ni       2.44317928       5.24507411       1.92192439
Ni       6.13922636       4.31067580       0.27870937
Ni       2.99738146       7.79472421      -2.94107677
Ni       0.63257689       2.93422124       3.65847686
Ni      -0.13903928       6.59208609       5.59856458
Ni       4.44853393       2.13439743       5.58726078
Ni       0.65202417       6.46319053       2.95105454
Ni       3.07880245       1.28266141       0.24123238
Ni       5.68508963       0.67317343       4.71454935
Ni       6.68773449       1.01636173       2.31489816
Ni       5.48738394       2.67065291      -3.56673154
Ni       3.63945425      -2.52245666       6.19962471
Ni       4.65160368      -1.38381038       4.32521624
Ni      -0.29530481      -0.78118178       7.51117915
Ni       4.61973821       4.24619744       1.92444695
Ni       5.65027402       1.51590226       0.28430981
Ni       2.03466520       8.19169094       2.14800988
Ni       7.89866872       3.76495004       0.87094364
Ni       2.67420027       6.89868302      -1.07012589
Ni       1.83831272       4.94538488       4.39742971
Ni       1.99506120       2.57229298       5.48248905
Ni       5.48763500       3.91153783       5.57536938
Ni       3.44996386       6.80436847       2.68806868
