416
Lattice="16.264699935913086 0.0 0.0 0.0 16.264699935913086 0.0 0.0 0.0 16.264699935913086" Properties=species:S:1:pos:R:3 ipi_comment="Step:       23712  Bead:       0 positions{ase}  cell{ase}" pbc="T T T"
N       11.36843083       6.15300826       8.19099738
N       11.38916529       4.08868836       7.38275765
C       12.10057354       5.01818245       8.03864990
H       13.03580864       4.85970476       8.60603701
C       10.14835154       5.97484610       7.52111221
H        9.31853806       6.78368718       7.38459652
C       10.11388308       4.67251747       7.11360360
H        9.50054745       4.10157589       6.38006082
C       11.73230167       2.69478194       7.35632080
H       11.03699473       2.15259133       6.66462734
H       11.56431688       2.30196369       8.29157286
H       12.76671104       2.52234184       7.02096347
C       11.56703237       7.20509758       9.13195089
H       11.69468608       6.74183398      10.15047922
H       10.62729608       7.79124577       9.22629845
C       12.85673015       7.89215938       9.02371227
H       12.97314965       8.22029597       8.02767555
H       13.70554685       7.07996770       9.19609234
C       12.80645105       9.15025704       9.99466175
H       13.40845131       9.96669138       9.66524893
H       11.75396147       9.49013663       9.88984841
C       13.21371339       8.79448064      11.40732912
H       14.01994345       8.16190850      11.61296112
H       12.29974964       8.34948673      11.75795339
H       13.37804301       9.79088992      11.88852348
N       13.01831132       2.25014868       2.07099407
N       12.55679151       0.69257702       0.64917355
C       13.53939033       1.29034179       1.26679804
H       14.53376416       0.88712203       1.39961262
C       11.64775195       2.31106342       1.82759776
H       11.02257142       3.01592259       2.36224783
C       11.38147952       1.22988391       0.99412334
H       10.37677542       0.88417673       0.56478883
C       12.77724215      -0.43429647      -0.33023256
H       13.60025895      -1.11541417      -0.07870227
H       13.07681041       0.00113660      -1.30425088
H       11.87506280      -1.05534987      -0.40141734
C       13.63364149       2.96124191       3.17706076
H       14.38284992       3.70468463       2.85083479
H       14.06069443       2.17221556       3.78414900
C       12.59102179       3.90691629       3.93670643
H       13.05476677       4.25861702       4.98383641
H       11.63480290       3.35182981       4.15166516
C       12.43261991       5.26777793       3.22417024
H       13.40045420       5.79720691       3.35928095
H       12.24689812       5.33104551       2.15230780
C       11.31802825       6.04696414       3.90901994
H       11.31877945       7.09336504       3.50437446
H       11.25049534       6.12250943       4.96874569
H       10.37904390       5.58761012       3.54232337
N        7.60883514      11.34922455       8.26840138
N        5.55500755      11.23482248       7.61984549
C        6.32818302      11.15466956       8.67778216
H        6.00181233      10.84782845       9.66891362
C        7.59090200      11.45307522       6.86097430
H        8.52225972      11.51218158       6.23879679
C        6.29790563      11.32310383       6.44293353
H        5.70693224      11.30689587       5.56730698
C        4.08990435      11.24134986       7.66075766
H        3.61615070      10.38089335       8.18680629
H        3.77327270      11.15740000       6.62363606
H        3.61442555      12.21101452       7.98401250
C        8.72995768      11.01689713       9.05214131
H        9.61757506      11.46817681       8.50271833
H        8.77098162       9.90683553       9.13052312
C        8.75668152      11.55290476      10.54110660
H        7.74726249      11.58859999      11.08242238
H        9.22590128      12.51586265      10.58338606
C        9.46005940      10.43574640      11.28531524
H        8.77160362       9.60753432      11.28549877
H       10.11876285       9.90626961      10.54684179
C       10.09221830      10.84160690      12.62069793
H       10.79168134      11.68312673      12.40332499
H       10.65891250      10.01631378      13.00222554
H        9.36687538      11.29690565      13.31597891
N       10.09238413      12.20598827       2.30697615
N       11.30020149      10.47775532       1.94704350
C       10.65234439      11.16999968       2.88465810
H       10.74565152      10.94285819       3.91903985
C       10.36172794      12.14525815       0.94463335
H        9.96487478      12.85165544       0.13154719
C       11.14656569      11.05131917       0.72621116
H       11.73188649      10.40677679      -0.03007744
C       12.08528689       9.32820529       2.23203138
H       13.00287988       9.36282852       1.54472845
H       11.48697508       8.44393159       2.12096006
H       12.36406808       9.46796153       3.31222604
C        9.49055073      13.33300601       3.05916689
H        8.57401118      12.98769475       3.58346791
H        9.15753276      13.92379186       2.16252672
C       10.51856943      14.06160622       3.94344277
H       11.30219371      14.40472274       3.19649795
H       10.86822203      13.30084920       4.61941935
C        9.83325524      15.36812916       4.79486246
H        9.55043924      16.04098869       4.02856265
H        9.01511194      14.95232547       5.41000805
C       11.03386884      15.98434749       5.57186048
H       11.22584902      15.24475749       6.32471939
H       10.55153664      16.83108599       6.09723042
H       11.94739515      16.33479911       5.00420593
N       14.58617183       5.37083829      14.27147444
N       16.43368386       6.38107565      13.64971734
C       15.18284399       6.55628920      14.17793023
H       14.70176963       7.50848217      14.74087225
C       15.46083107       4.42368892      13.79917666
H       15.20696145       3.34676365      13.66299060
C       16.62503871       5.05705761      13.44681167
H       17.61078522       4.67890497      13.19501653
C       17.46193569       7.37297541      13.64550391
H       17.81407666       7.53921412      14.72337282
H       17.23629153       8.39051152      13.25363104
H       18.28745759       7.01134074      13.01311892
C       13.33774496       5.25878172      14.99932240
H       13.58628352       5.88313007      15.86349363
H       13.07756506       4.18716628      15.17628408
C       12.32876001       5.85926266      14.09848964
H       12.25759639       5.20404253      13.14471653
H       12.85428928       6.78234727      13.77232064
C       10.88346513       5.99968625      14.53465253
H       10.74907413       6.79564845      15.36828796
H       10.39089185       6.38933700      13.59513846
C       10.19216866       4.71862090      14.81811828
H       10.64354149       4.05324685      15.62146343
H       10.23771172       4.27667260      13.77175803
H        9.10656306       4.88029075      14.93353344
N        1.06326256      12.18654996       5.70776675
N        1.97207621      13.58234341       4.33193625
C        1.45543834      12.37121482       4.40520667
H        1.21394994      11.63498346       3.60655655
C        1.39092215      13.22643003       6.41038456
H        1.21243008      13.37183639       7.49156365
C        1.97119766      14.13772713       5.58601109
H        2.33561178      15.17409772       5.67489412
C        2.45136763      14.02964808       3.01919200
H        1.68850358      13.96576400       2.18814625
H        3.39252053      13.37559554       2.78924972
H        2.68794971      15.09563188       3.02587770
C        0.63424791      11.06404486       6.44531602
H       -0.02928554      11.37202960       7.24978318
H        1.40695238      10.34634842       6.70372900
C       -0.25398064      10.21092527       5.44019598
H        0.42894180       9.44431919       5.10902243
H       -0.63024243      10.85045508       4.64863127
C       -1.19646992       9.40469920       6.22124939
H       -0.66105864       8.90058165       7.03061846
H       -2.02518259       9.97595752       6.58919281
C       -1.78736336       8.43572650       5.19973075
H       -2.16193534       7.50650618       5.58567428
H       -0.99629637       7.91525248       4.65668509
H       -2.48481727       8.87112436       4.49898891
N        5.10396770       7.12183107      12.37950702
N        4.42857698       6.48024893      10.38492521
C        4.63530958       7.50028349      11.19360668
H        4.57098161       8.55193523      11.03515211
C        5.07384524       5.77248168      12.35172037
H        5.26601390       5.32154645      13.32878660
C        4.60129857       5.34209836      11.17643426
H        4.22039169       4.34831878      10.74961314
C        3.92174417       6.58392282       8.98537913
H        3.29498363       7.46206790       9.08095803
H        3.41587562       5.68253887       8.66122200
H        4.69232776       6.82822641       8.28097754
C        5.09491873       7.92035264      13.56684759
H        4.26849893       7.43355638      14.25415570
H        4.96117121       9.00811893      13.41079896
C        6.43654612       7.79151201      14.25407018
H        6.71403661       6.79792511      14.52033394
H        6.32459372       8.39469980      15.19684766
C        7.72272016       8.34239785      13.54571963
H        7.55008336       9.26835886      13.10088903
H        8.38032421       8.52144497      14.42478676
C        8.13399259       7.31391414      12.55632062
H        7.68710290       7.47150467      11.56945770
H        8.18617634       6.26429285      12.78194975
H        9.26007775       7.40897526      12.35338194
N        6.62311276       0.48869703       2.31789499
N        6.36900381      -0.96730672       4.01257645
C        6.67135759       0.29038429       3.64887559
H        7.14090114       1.11662785       4.17126815
C        6.26293235      -0.71539692       1.76978553
H        6.25704748      -0.87952688       0.71580372
C        6.10290906      -1.65465939       2.82410213
H        5.69290415      -2.65130094       2.77710602
C        5.73934161      -1.44299804       5.25926410
H        5.18471657      -0.59554630       5.63247760
H        6.52182990      -1.95930654       5.82289162
H        4.94897323      -2.16444978       5.04304004
C        7.06720872       1.68734012       1.70528128
H        7.81119766       1.29235031       0.78511860
H        7.75277337       2.11740685       2.43103769
C        5.85553862       2.56373565       1.33436420
H        5.04746866       2.56815133       2.05434839
H        5.56704630       2.22545979       0.34509476
C        6.51500783       3.98528894       1.18649051
H        7.22907825       3.91368085       0.42965453
H        5.80756066       4.61552830       0.59050019
C        6.95488470       4.81687145       2.36547784
H        7.68420646       4.41994780       3.04970286
H        6.02458595       5.23047319       2.86465103
H        7.38510456       5.84324748       2.01965369
N       15.27792580      12.00783196      12.59496822
N       14.48175378      12.45592049      14.56366809
C       14.65338507      11.48554286      13.65343428
H       14.47814958      10.35859592      13.60213571
C       15.50449215      13.34589762      12.74740684
H       15.94560200      13.97999615      11.97764850
C       15.01619210      13.64384211      14.05777775
H       15.07717926      14.55404854      14.48207115
C       13.85754580      12.22221287      15.84022662
H       14.39635438      12.72768647      16.61780911
H       13.80806019      11.10877239      16.02261996
H       12.75569370      12.52296304      15.80852532
C       15.80047878      11.24333976      11.51785287
H       16.62834629      11.92794546      11.01151331
H       14.85756438      11.05162639      10.93756550
C       16.43389720       9.92815775      11.88729183
H       15.64692100       9.41912682      12.55569903
H       17.30613248      10.15471537      12.54528300
C       16.76460524       9.03393501      10.70329303
H       16.89633768       8.00478000      10.95731148
H       15.82236946       9.03316432      10.05612365
C       17.82965685       9.61548460       9.64867889
H       17.74050294      10.68634356       9.64762844
H       17.58907091       9.34768190       8.67864871
H       18.85636800       9.27442723       9.91990792
N        0.29897117       2.87673040       8.28459910
N       -0.87036099       1.30870990       9.22257632
C       -0.61680859       2.64562653       9.22775355
H       -1.22639644       3.34198490       9.73881047
C        0.73671339       1.68681489       7.74674480
H        1.63647010       1.77822421       7.08531570
C       -0.12652316       0.72697518       8.26540713
H       -0.14133851      -0.39720344       8.20942721
C       -2.03831435       0.75251760       9.92082667
H       -2.51530336       1.63178491      10.46752241
H       -1.71903462      -0.14475882      10.50492245
H       -2.73296959       0.48896248       9.16323582
C        0.89294190       4.22651990       8.15189800
H        1.65379734       4.11835226       7.39667127
H        1.31387842       4.35467977       9.18866698
C       -0.21579346       5.28860159       7.70426516
H        0.21897790       6.27499480       7.52233988
H       -0.91354615       5.40769091       8.56860725
C       -0.93553976       4.71475895       6.47297815
H       -1.40855335       3.70139042       6.62959631
H       -1.80503811       5.37040090       6.07652274
C        0.11926439       4.36227629       5.50932921
H        0.76050126       3.52932071       5.86034819
H        0.75597878       5.24772690       5.19255960
H       -0.39601715       3.93480506       4.59307904
N       18.37948683       2.40803098       1.92148793
N       17.81713750       0.48113456       1.15106190
C       18.44441794       1.58809017       0.82199747
H       18.65280413       1.78688212      -0.19763992
C       17.77956383       1.67726468       2.93375658
H       17.44711783       2.11706068       3.89820328
C       17.26901336       0.46945890       2.46507417
H       16.69806844      -0.44125160       2.78945000
C       17.53459092      -0.59708856       0.11473989
H       16.71609983      -1.19273101       0.45044291
H       18.39782952      -1.27015798      -0.21288157
H       17.16122256       0.02993298      -0.84951413
C       18.85448431       3.77253168       2.06443107
H       19.42804619       4.00993349       1.13866219
H       19.48487414       3.98128068       2.93365569
C       17.69800251       4.71704649       2.22163144
H       17.31227668       4.57247057       3.21950974
H       16.89738690       4.57761041       1.55239342
C       18.18349613       6.16055360       2.15089893
H       19.00046332       6.24437580       2.90240060
H       18.80473975       6.27507433       1.21571640
C       17.07052070       7.11644330       2.46574773
H       16.34723936       7.23222085       1.65133749
H       17.45521843       8.15605712       2.56932087
H       16.59024076       6.95815215       3.42350351
N       13.12314156      12.63575574       7.04080452
N       14.10720600      14.05262674       5.88172522
C       14.01108278      13.57453707       7.10728373
H       14.63433342      14.16336046       7.84492474
C       12.86326931      12.31205106       5.78584239
H       12.29876174      11.37755863       5.66612360
C       13.44519438      13.30338055       4.99059119
H       13.61085437      13.65799183       3.95753475
C       14.96663640      15.14782749       5.59643176
H       14.48750373      16.07524537       5.91956208
H       15.08353551      15.16250358       4.46286615
H       16.00491778      15.11213115       6.00717315
C       12.61544020      11.77661271       8.17118684
H       13.41791221      11.05350226       8.30348053
H       11.85885352      11.08963464       7.72051553
C       12.34363559      12.68083032       9.40527919
H       13.32833510      13.20530599       9.66732035
H       12.07984160      11.92766238      10.20089532
C       11.29510728      13.75526706       9.31842556
H       11.15144896      14.08215594       8.26325203
H       10.39522413      13.22904219       9.63773280
C       11.51304567      14.78546932      10.35807272
H       11.50340545      14.31971931      11.33061015
H       10.53996916      15.38596496      10.45092303
H       12.39253585      15.46869497      10.38655093
N        5.20343560       6.46686136       5.91950169
N        5.51498587       4.45829349       6.72957075
C        5.97240594       5.71826916       6.74515206
H        6.72496644       6.20586443       7.50047251
C        4.17174160       5.73863894       5.44810991
H        3.31403030       5.94884618       4.81919974
C        4.35883112       4.44868064       5.88859143
H        3.81956037       3.53671430       5.54352428
C        6.22636117       3.38235818       7.39534488
H        6.14732423       3.39805830       8.50067179
H        7.17820071       3.36237991       7.02320671
H        5.81585460       2.37630148       7.05625617
C        5.25611981       7.94586106       5.87225692
H        5.97848005       8.22512227       6.69197723
H        4.28698933       8.37253836       6.08915889
C        5.83885284       8.34369407       4.49414750
H        5.64258819       9.33534180       4.03592678
H        5.51508395       7.61794526       3.72374270
C        7.34365290       8.32638717       4.45353676
H        7.76124098       8.56968919       5.47004496
H        7.83212105       7.43242365       3.98117849
C        7.78247586       9.53457412       3.49517527
H        8.87466348       9.73122862       3.75444876
H        7.15836706      10.49967087       3.63533639
H        7.56172201       9.15034021       2.41225441
N        4.65180330      10.93681732      16.09604285
N        5.73294510      12.38204530      14.93069857
C        4.88330550      11.33179249      14.89428566
H        4.58124235      10.98788248      13.91786077
C        5.22165500      11.80818402      17.02243086
H        5.32619631      11.58756032      18.10707426
C        5.92892317      12.72882546      16.23974960
H        6.73232981      13.46535726      16.50792427
C        6.25172434      13.24184355      13.87486671
H        5.93892654      12.91708602      12.92023153
H        7.33982085      13.07410028      13.84266280
H        5.95156186      14.36622768      14.07185048
C        4.04141488       9.74825691      16.56622797
H        4.85125408       9.08605442      16.95712212
H        3.71359280       9.14792517      15.70024635
C        2.69873673       9.81358177      17.40813835
H        3.01233070       9.84389440      18.52588231
H        2.17714144       8.87352221      17.11289710
C        1.79775393      11.24819124      17.34102668
H        2.39237139      11.85396213      18.02971661
H        1.92588908      11.75531130      16.36924368
C        0.41666704      11.02372201      17.84712872
H       -0.12612295      10.52965067      17.03424134
H       -0.06682595      12.06374700      18.13316536
H        0.50372651      10.59332171      18.90286980
N        8.89937133       0.72254701      12.46806634
N       10.74877710       1.81710894      12.76606141
C       10.02365340       0.90331113      13.30327748
H       10.31260062       0.35388159      14.22647618
C        9.03159100       1.58922212      11.46271467
H        8.31683068       1.84168657      10.68893690
C       10.24787687       2.24881815      11.58360447
H       10.65732311       3.02937841      11.00734779
C       12.02184664       2.29643593      13.22158616
H       12.09442518       2.57510875      14.29560418
H       12.16880774       3.20138823      12.59207651
H       12.83191657       1.57522335      12.92512054
C        7.62371896       0.02605245      12.68426875
H        7.73822800      -0.35214920      13.73803924
H        7.74747966      -0.75271121      11.94472419
C        6.35803652       0.84462458      12.40505809
H        5.47100638       0.24628683      12.81500524
H        6.17427392       1.02376909      11.35727356
C        6.31727182       2.14954425      13.23727041
H        7.03943872       2.01328901      14.01473583
H        6.70892809       2.96037335      12.51427067
C        4.99098004       2.61256779      13.68481985
H        4.39412697       2.79736525      12.76125841
H        5.17423543       3.39492124      14.52242716
H        4.51594771       1.76935587      14.25740378
N        3.32833091      -1.33928616      10.31953378
N        2.42306287      -0.50235797      12.12764407
C        2.49970389      -0.32452243      10.79565032
H        2.30294613       0.70360555      10.33176853
C        3.67842360      -2.22370990      11.37145731
H        4.37072269      -3.19435114      11.29590258
C        3.12060287      -1.66329656      12.50154167
H        2.87822418      -1.92862287      13.56649534
C        1.71025301       0.30564511      13.06186172
H        1.43843999       1.22556096      12.50054490
H        2.55303884       0.63725383      13.64750131
H        0.75403836      -0.01643069      13.60047840
C        3.81476761      -1.11196455       8.94029661
H        2.93732954      -0.64930847       8.43897127
H        3.96834249      -2.07216560       8.41478419
C        5.16080258      -0.31302374       8.93772377
H        4.95649181       0.51902698       9.59130137
H        5.17849561       0.11003127       7.95194717
C        6.41560468      -1.08276276       9.19798292
H        6.59279907      -0.79078441      10.25720186
H        6.23721622      -2.15479498       9.12068715
C        7.68707134      -0.72468741       8.39941254
H        8.05290867       0.22986087       8.67518518
H        7.56089469      -0.71307479       7.30883255
H        8.47427352      -1.44499028       8.66382698
Cl       5.03647624      11.07830351      11.48727260
Cl      12.86867354       3.93752191      10.64218343
Cl       1.95643113       7.91641674       5.36087448
Cl       3.74984842       5.56416665      15.42868751
Cl      15.10032003       1.01517490      13.93886307
Cl       8.75807051      15.34156832      15.90977670
Cl      15.13914188      14.40872659       2.00985742
Cl       4.32969511      15.80019835      15.26323412
Cl       4.34934058      11.62267468       4.04967109
Cl       0.23663062      13.80298408       9.75723980
Cl       3.09752053       2.64231611       9.69127001
Cl      10.77935358       9.38524427       5.46566465
Cl       7.46670228       7.84107275       8.77201957
Cl       3.75445683       1.21825291       5.26718963
Cl       9.11700768       2.75342064       4.84493182
Cl      13.16473237       8.78997586      15.28293813
