192
Lattice="12.364584808284006 0.0 0.0 0.0 12.364584808284006 0.0 0.0 0.0 12.364584808284006" Properties=species:S:1:pos:R:3 ipi_comment="Step:       19600  Bead:       0 positions{ase}  cell{ase}" pbc="T T T"
O        1.06922484      11.02091446      13.37170433
H        2.00385488      11.08750966      13.55916259
H        0.66238044      11.42004816      14.15180240
O       -1.07407564      -4.96609756       5.60816796
H       -0.45171456      -4.38655946       6.06998229
H       -1.13583716      -5.81121634       6.01141209
O        9.20062833       2.95862111       9.40131530
H        9.43838201       3.14894901      10.30536838
H        9.14549534       3.84059588       9.01726747
O        4.93181067      11.82080032      -1.18021285
H        5.12324022      10.92570485      -1.36421718
H        5.44747824      12.29646461      -1.81198456
O       12.65913922       4.99787537      -2.62546067
H       13.31406267       5.64892200      -2.80381936
H       12.13883724       5.04521884      -3.39756287
O        9.26751729      21.70257228      -7.37057618
H        9.25244548      22.28777045      -6.61052914
H       10.17724602      21.40301828      -7.48757641
O        0.26026429       8.54385645      -0.39775032
H        1.09571826       8.43783238       0.06757063
H        0.14333055       9.50245869      -0.20957280
O        5.03449966       9.04189723      -9.54202006
H        4.45187825       9.42285638     -10.22508329
H        5.79077267       9.65231709      -9.40790795
O        3.91727972      -1.31518772       1.31739039
H        3.95754712      -0.60046266       1.99282855
H        4.32631150      -0.88902980       0.58678820
O        2.46136009      22.03335513       8.55622930
H        2.48471261      21.19934408       9.03352890
H        2.56192421      22.73631799       9.19203445
O        8.70623524       7.93048001      -4.40322068
H        8.39958648       7.74495857      -5.31635031
H        9.50762910       8.33504772      -4.49075269
O        7.54716061       7.37290449       5.41138360
H        6.58891268       7.48395953       5.53368754
H        7.85027863       7.69728088       4.55486858
O       11.32005673       5.23193098       7.32385517
H       11.19992868       4.33338923       7.02014815
H       10.44586233       5.34794089       7.71480253
O       12.45933458      12.87180078     -13.20719930
H       12.78541189      12.26546671     -12.55107467
H       11.94150114      13.61792947     -12.75154372
O       19.34188114       0.89127792      -7.58470857
H       18.97714755       1.36214744      -8.30667851
H       19.14238221       1.31084485      -6.79455152
O       -1.28879143       8.72531138      -2.68201084
H       -0.64084572       8.49074664      -2.02358845
H       -1.51622811       9.66674682      -2.56824983
O        0.14317205      -3.10416430      -5.13021174
H        0.92930314      -2.69245179      -4.80535363
H       -0.35493946      -3.55241718      -4.41778778
O        3.18806899      12.31806438      -6.58909763
H        4.04435666      11.81207314      -6.59992605
H        3.28107357      12.98738662      -5.87178437
O        2.42638054      12.11260071      -2.28453851
H        3.24139760      12.11704365      -1.71579069
H        1.73406999      12.62408367      -1.86134715
O       -9.35484836       4.51814052      -6.62911851
H       -9.36612705       5.46667054      -6.41998242
H      -10.27405832       4.35581829      -6.52744625
O        2.98253758       1.60116173     -16.82675784
H        2.24779616       2.19190413     -16.78064406
H        2.75303664       0.94877318     -16.09493745
O        7.85021209      12.19508996      -1.25555824
H        7.90396295      12.17080635      -0.28630943
H        7.49042961      13.06279217      -1.44793845
O       -3.30288750      -0.97505511       6.83705413
H       -3.98970524      -1.22539536       7.44577594
H       -3.13192898      -0.02639021       6.87833686
O        5.95457952     -18.70664412      -0.14142530
H        5.79612859     -18.46718426       0.82352448
H        5.12863790     -18.90478007      -0.53799922
O        2.04503174       3.11416460      -1.54438334
H        1.48091406       3.73582665      -2.06189413
H        1.88509643       3.31516119      -0.64231919
O       -3.43030335       8.41161272      -0.90057659
H       -3.54043920       7.47378391      -0.75681451
H       -2.66604577       8.48463571      -1.48940041
O        9.69690729      -8.60710851       4.39785791
H        9.73474114      -9.21846464       5.14896309
H        8.75542512      -8.32151426       4.20936335
O       -9.26654772       5.43696233       3.10045791
H       -9.28969168       4.82975858       3.87381026
H       -9.78663110       6.18972570       3.41812762
O        2.53904240      -4.45177307     -11.49608439
H        2.32157692      -5.06696016     -10.79498277
H        2.57590560      -3.57781805     -11.11657306
O        2.14761314       6.91829965      -2.31563558
H        2.92134269       6.48062076      -1.90329749
H        1.74965148       7.38368958      -1.59368759
O        7.07286423     -14.25982595      -8.86250795
H        6.81901443     -13.45774707      -8.39554175
H        7.85563043     -14.59567721      -8.35020912
O       10.46048166       4.12941226      -0.55743272
H        9.81196252       4.81387880      -0.34528353
H       11.10763197       4.57857378      -1.17101132
O       17.17599631       3.68730128      -3.97942894
H       16.46831320       2.99585727      -4.10851755
H       17.53644332       3.86535770      -4.85056444
O       14.73944197      -5.32463941       6.55155437
H       14.83552384      -5.12885446       7.49299673
H       15.35265869      -4.72403771       6.15195760
O       12.36390295      11.95393842      -9.15645482
H       12.78603548      11.40907615      -8.40365127
H       11.37371083      12.01978009      -9.28032842
O       17.26692598     -14.16514733       7.20715390
H       16.57938093     -14.59875721       7.78717715
H       18.05493192     -14.15599133       7.83094907
O        1.92877592      -4.47559149       3.60606738
H        0.97022899      -4.39180286       3.58133948
H        2.23455308      -3.61990515       3.74265318
O       -3.91801485       5.18871596      -4.01597929
H       -3.96338281       6.13979020      -4.00985198
H       -4.58107425       4.86974425      -4.63159107
O       13.40797290       2.36257768       3.50190633
H       13.63613372       2.77774531       2.66334378
H       12.80580651       1.62185782       3.23432187
O        8.30875761      11.69288287       1.46568276
H        8.89569261      10.93944004       1.56231615
H        7.50847419      11.29501812       1.83121021
O        7.40948473       4.75840288      -8.27457911
H        7.44605630       5.56896678      -7.75335245
H        6.85790828       5.03958643      -9.03270974
O        5.67269592      -8.96777868      -6.55432908
H        6.14545787      -8.64061204      -7.32621497
H        4.82804832      -8.65441636      -6.75901400
O       -5.13274436      -1.92721939      -3.65529310
H       -4.89250716      -1.70208278      -2.72370185
H       -4.69978100      -2.74601739      -3.84549215
O       24.47375385      14.66876650       6.03526230
H       24.90841872      13.91393777       6.39106263
H       25.02194497      14.91380447       5.28757402
O        9.68176863       0.28279767       3.56227548
H        8.97055540       0.70175939       4.03715169
H        9.16735278      -0.10875040       2.89952062
O        3.98153077       4.91313901      10.61355585
H        3.55740112       4.10243528      10.92724753
H        4.26833108       4.61448208       9.78650186
O        5.25521539      14.95801792       2.74736926
H        4.54849778      14.32509564       2.72860959
H        5.66550148      14.98602947       1.90430834
O       -1.43577106      14.15117072       1.11710502
H       -2.06010641      14.69288286       0.69852081
H       -1.88002766      13.83609314       1.92249177
O       -1.73949699      11.44740781      -1.99887555
H       -2.61807324      11.79009828      -1.69738211
H       -1.02116492      12.06039869      -1.81287493
O       -2.41602318      -2.92611143       1.26140744
H       -1.69669468      -3.31834549       1.67628553
H       -2.61346183      -3.49390040       0.52444223
O      -10.78030684       3.69914116       1.32326094
H      -10.20970494       4.32120829       1.76979650
H      -11.67549246       4.00486976       1.54626919
O        6.39632864       3.23136397       0.20017676
H        6.35764059       4.20942732       0.15155487
H        5.94870340       2.99557308      -0.59479829
O       -0.16205505      12.29535635      -4.68312726
H       -0.24242469      12.12888517      -3.75272850
H       -0.83751222      11.70440124      -5.04451417
O       11.54936810       4.92106127       1.88305463
H       10.98305467       4.34549625       2.33432321
H       11.27755673       4.79691467       0.96197212
O       15.72716463      13.14853727      -9.18755737
H       15.71807524      12.95623596      -8.21925135
H       14.83617357      13.40259868      -9.30452902
O       17.90656612      -5.97727924       2.53514237
H       16.98315279      -6.40128753       2.71966376
H       17.96161554      -4.97250555       2.62693802
O        6.54067160       1.94097693      -2.41974420
H        7.30258611       2.29603622      -2.80608312
H        5.77298611       2.23810054      -2.86139442
O        1.14793174      -2.04758754      -7.50402246
H        0.66934321      -2.33429002      -6.73879586
H        1.72339918      -1.34383410      -7.15193700
O        6.03239134      21.65984357      -1.06231934
H        6.83120514      21.55678937      -1.54791825
H        6.03750741      20.95085310      -0.44347957
O        9.41034335       1.79600390       6.74996199
H        9.36456136       1.96067537       7.74342252
H       10.33173269       1.95653244       6.46867745
O       -3.73292452       6.02863626      12.50542193
H       -4.68102973       6.01922438      12.30100872
H       -3.62228270       6.40805696      13.38507467
O       11.60657667      19.90244707       3.03100664
H       11.88233196      19.04246469       2.63844329
H       11.45734594      19.73422206       4.02756313
O        5.00263714       8.23216398      -6.84394723
H        4.90094685       8.50946261      -7.76275664
H        5.09424974       9.07415946      -6.35015756
O       21.28388854       7.28491168      -9.65118121
H       21.43101012       8.18392552      -9.90064161
H       22.05588157       6.87298194      -9.38563234
