LAMMPS Description
 
         96  atoms
         64  bonds
         32  angles
 
           2  atom types
           1  bond types
           1  angle types
 
       -9.694295 9.694295 xlo xhi
       -9.694295 9.694295 ylo yhi
       -9.694295 9.694295 zlo zhi
 
Masses
 
  1 15.9994
  2  1.0080
 
Bond Coeffs
 
  1    1.78    0.2708585 -0.327738785 0.231328959
 
Angle Coeffs
 
  1    0.0700  107.400000

Atoms

  1 1 1 -1.1128        7.098  8.901  17.941  
  2 1 2 0.5564         8.700  8.073  18.276  
  3 1 2 0.5564         7.555  10.053  16.607 
  4 2 1 -1.1128        18.771  16.707  0.692 
  5 2 2 0.5564         19.147  15.488  2.116 
  6 2 2 0.5564         17.703  15.966  -0.597
  7 3 1 -1.1128        0.607  2.819  10.953  
  8 3 2 0.5564         -0.542  3.766  9.904  
  9 3 2 0.5564         1.495  3.895  12.026  
  10 4 1 -1.1128       15.184  18.396  8.139 
  11 4 2 0.5564        13.612  18.499  9.160 
  12 4 2 0.5564        16.320  17.588  9.297 
  13 5 1 -1.1128       10.702  17.162  1.247 
  14 5 2 0.5564        12.053  18.370  1.538 
  15 5 2 0.5564        9.851  16.991  2.933  
  16 6 1 -1.1128       15.363  0.406  2.270  
  17 6 2 0.5564        15.488  -0.123  4.002 
  18 6 2 0.5564        16.890  -0.304  1.546 
  19 7 1 -1.1128       15.452  7.871  1.353  
  20 7 2 0.5564        14.919  9.573  1.587  
  21 7 2 0.5564        14.592  6.731  2.534  
  22 8 1 -1.1128       11.983  6.153  18.289 
  23 8 2 0.5564        13.479  6.469  19.254 
  24 8 2 0.5564        12.296  4.532  17.669 
  25 9 1 -1.1128       0.257  14.736  5.174  
  26 9 2 0.5564        -0.011  15.685  6.773 
  27 9 2 0.5564        0.593  13.049  5.605  
  28 10 1 -1.1128      9.500  4.843  11.658  
  29 10 2 0.5564       10.465  6.304  11.833 
  30 10 2 0.5564       10.040  3.838  13.081 
  31 11 1 -1.1128      13.538  4.804  4.569  
  32 11 2 0.5564       11.807  4.662  5.040  
  33 11 2 0.5564       13.954  3.177  3.887  
  34 12 1 -1.1128      6.304  17.104  6.170  
  35 12 2 0.5564       5.325  15.762  5.267  
  36 12 2 0.5564       5.165  18.508  6.421  
  37 13 1 -1.1128      2.789  2.683  1.548   
  38 13 2 0.5564       2.003  1.073  1.192   
  39 13 2 0.5564       2.990  2.852  3.345   
  40 14 1 -1.1128      2.309  9.347  6.081   
  41 14 2 0.5564       3.989  8.887  6.656   
  42 14 2 0.5564       2.536  9.365  4.242   
  43 15 1 -1.1128      12.831  12.266  8.481 
  44 15 2 0.5564       13.385  10.875  9.588 
  45 15 2 0.5564       12.750  13.782  9.401  
  46 16 1 -1.1128      17.631  6.548  8.371   
  47 16 2 0.5564       18.848  7.476  7.404   
  48 16 2 0.5564       16.220  5.939  7.495   
  49 17 1 -1.1128      14.143  8.585  12.055  
  50 17 2 0.5564       14.369  8.409  13.848  
  51 17 2 0.5564       15.573  7.744  11.314  
  52 18 1 -1.1128      0.847  10.773  15.532  
  53 18 2 0.5564       1.083  9.146  14.874   
  54 18 2 0.5564       1.361  10.679  17.240  
  55 19 1 -1.1128      1.391  7.714  1.030    
  56 19 2 0.5564       1.950  5.947  0.947    
  57 19 2 0.5564       -0.472  7.517  0.900   
  58 20 1 -1.1128      7.992  4.879  6.731    
  59 20 2 0.5564       8.787  4.467  8.360    
  60 20 2 0.5564       8.137  6.663  6.606    
  61 21 1 -1.1128      7.085  10.050  6.786   
  62 21 2 0.5564       6.760  10.582  5.083   
  63 21 2 0.5564       8.540  10.983  7.240   
  64 22 1 -1.1128      0.457  16.138  9.817   
  65 22 2 0.5564       0.459  17.862  10.307  
  66 22 2 0.5564       1.370  15.311  11.081  
  67 23 1 -1.1128      11.461  0.459  15.441  
  68 23 2 0.5564       12.633  -0.680  16.174 
  69 23 2 0.5564       9.893  -0.038  16.225  
  70 24 1 -1.1128      13.912  15.173  17.100 
  71 24 2 0.5564       12.697  14.798  15.707 
  72 24 2 0.5564       12.875  14.814  18.438 
  73 25 1 -1.1128      3.725  2.213  6.862    
  74 25 2 0.5564       2.872  2.644  8.455    
  75 25 2 0.5564       5.331  2.980  6.676    
  76 26 1 -1.1128      14.502  12.482  4.033  
  77 26 2 0.5564       13.498  12.264  5.514  
  78 26 2 0.5564       16.182  12.625  4.552  
  79 27 1 -1.1128      5.233  13.954  13.748  
  80 27 2 0.5564       4.447  15.284  14.642  
  81 27 2 0.5564       4.250  12.385  13.999  
  82 28 1 -1.1128      4.258  5.274  13.888   
  83 28 2 0.5564       5.136  6.104  15.261   
  84 28 2 0.5564       5.584  5.047  12.674   
  85 29 1 -1.1128      6.901  18.808  17.556  
  86 29 2 0.5564       7.774  17.969  18.865  
  87 29 2 0.5564       6.045  20.105  18.489  
  88 30 1 -1.1128      9.946  12.676  14.341  
  89 30 2 0.5564       8.160  13.383  14.564  
  90 30 2 0.5564       10.308  13.336  12.724 
  91 31 1 -1.1128      6.627  12.701  1.928   
  92 31 2 0.5564       7.742  13.801  1.147   
  93 31 2 0.5564       6.777  11.308  0.792   
  94 32 1 -1.1128      10.308  17.378  11.127 
  95 32 2 0.5564       10.342  18.145  12.771 
  96 32 2 0.5564       8.596  17.457  10.363  

Bonds

 1 1 1 2
 2 1 1 3
 3 1 4 5
 4 1 4 6
 5 1 7 8
 6 1 7 9
 7 1 10 11
 8 1 10 12
 9 1 13 14
 10 1 13 15
 11 1 16 17
 12 1 16 18
 13 1 19 20
 14 1 19 21
 15 1 22 23
 16 1 22 24
 17 1 25 26
 18 1 25 27
 19 1 28 29
 20 1 28 30
 21 1 31 32
 22 1 31 33
 23 1 34 35
 24 1 34 36
 25 1 37 38
 26 1 37 39
 27 1 40 41
 28 1 40 42
 29 1 43 44
 30 1 43 45
 31 1 46 47
 32 1 46 48
 33 1 49 50
 34 1 49 51
 35 1 52 53
 36 1 52 54
 37 1 55 56
 38 1 55 57
 39 1 58 59
 40 1 58 60
 41 1 61 62
 42 1 61 63
 43 1 64 65
 44 1 64 66
 45 1 67 68
 46 1 67 69
 47 1 70 71
 48 1 70 72
 49 1 73 74
 50 1 73 75
 51 1 76 77
 52 1 76 78
 53 1 79 80
 54 1 79 81
 55 1 82 83
 56 1 82 84
 57 1 85 86
 58 1 85 87
 59 1 88 89
 60 1 88 90
 61 1 91 92
 62 1 91 93
 63 1 94 95
 64 1 94 96

Angles

 1 1 2 1 3
 2 1 5 4 6
 3 1 8 7 9
 4 1 11 10 12
 5 1 14 13 15
 6 1 17 16 18
 7 1 20 19 21
 8 1 23 22 24
 9 1 26 25 27
 10 1 29 28 30
 11 1 32 31 33
 12 1 35 34 36
 13 1 38 37 39
 14 1 41 40 42
 15 1 44 43 45
 16 1 47 46 48
 17 1 50 49 51
 18 1 53 52 54
 19 1 56 55 57
 20 1 59 58 60
 21 1 62 61 63
 22 1 65 64 66
 23 1 68 67 69
 24 1 71 70 72
 25 1 74 73 75
 26 1 77 76 78
 27 1 80 79 81
 28 1 83 82 84
 29 1 86 85 87
 30 1 89 88 90
 31 1 92 91 93
 32 1 95 94 96

































































































