560
Lattice="20.25 0.0 0.0 0.0 20.046477246638624 0.0 0.0 0.0 61.47836847854138" Properties=species:S:1:pos:R:3 ipi_comment="Step:        7812  Bead:       0 positions{ase}  cell{ase}" pbc="T T T"
Al       2.21529294       1.60727984      19.98302252
Al       5.83830467       1.18986536      19.97663753
Al      10.28760192       1.49436787      19.72549515
Al      14.44427656       1.45436199      20.01153596
Al      18.33854475       1.63349164      19.80607970
Al       1.97840464       4.21041793      19.82811933
Al       7.77133596       5.56784330      20.45430482
Al      14.73593729       4.37788243      19.96870019
Al      14.70304640       7.23565264      19.65480402
Al      17.83996019       4.40168334      19.91219412
Al       2.42057333       6.81901017      19.73221726
Al       8.17139068       8.00883226      21.54882136
Al      10.09946972       6.84504471      20.03301239
Al      10.45975549      12.71366598      20.16063150
Al      18.24728558       7.14477853      20.15421421
Al       2.10465245       9.59422563      19.97415660
Al       6.75146662      10.25646221      19.94887300
Al      12.19092423      10.95779703      18.69748711
Al      14.43975276       9.89135287      19.95021742
Al      18.06854414       9.82871716      19.91733360
Al       2.06051074      12.89715428      20.07742271
Al       6.05984807      12.90879886      20.29333559
Al       9.72455881       9.77245332      20.38412844
Al      13.80933011      12.65468504      20.01336486
Al      18.28769695      12.66707955      20.00900054
Al       2.10863411      15.70753918      20.00397208
Al       6.38178351      15.87837054      20.14679768
Al      10.21036733      15.48198220      20.04065500
Al      13.87233423      15.80735844      19.83444376
Al      18.18924533      15.79191071      19.70401469
Al       2.12530375      18.50160329      20.03717485
Al       6.27979572      18.53170945      19.79493473
Al      10.53722526      18.70112472      19.82240251
Al      14.18716503      18.57187454      19.94689876
Al      18.04382778      18.86016211      20.03004497
Al       0.08708477      -0.01759696      21.33294078
Al       4.18062315      -0.24953486      21.29709761
Al       8.24544842       0.04522181      21.08159452
Al      12.20620844       0.26725341      21.45635907
Al      16.25936565      -0.19521809      21.30794988
Al      -0.14855480       2.78553733      21.30187980
Al       4.14827654       2.97336295      21.47945244
Al       8.09203549       2.68605443      20.87921468
Al      12.12192876       3.14204470      21.16512024
Al      16.12302698       2.66537537      21.49471949
Al       0.19242573       5.65721907      21.03220823
Al       4.55888678       5.54780315      21.03306615
Al       6.25676746       7.33212649      19.91277549
Al      12.40845001       5.74451209      20.22181479
Al      16.27792412       5.81346618      21.60074106
Al       0.18087293       8.57349583      21.22529218
Al       4.35345423       8.78137852      21.29413020
Al      10.29508607       4.23961393      19.64675970
Al      12.12379500       8.61140509      20.55415537
Al      16.29331835       8.65891908      21.58459589
Al       0.12162877      11.30796029      21.24038362
Al       3.94004514      11.47708992      21.27237318
Al       8.28767052      11.50143283      21.76082411
Al      12.09405422      11.32411555      21.71311329
Al      16.11607273      11.30031061      21.34405749
Al      -0.14194298      14.33745561      21.30007310
Al       3.93065992      14.25954881      21.53936398
Al       8.06086298      14.33627571      21.25342208
Al      12.05623278      14.34110836      21.51978104
Al      15.92688275      13.99109348      20.94455639
Al      -0.15285731      17.12400125      21.14253355
Al       4.23919355      17.17321394      21.23260172
Al       8.49808005      17.51317291      21.06356999
Al      12.11023673      17.19084080      21.21428044
Al      16.18372378      16.84556874      20.86035442
Al       2.18030568       1.39219272      22.88208574
Al       6.07220221       1.28279648      22.61462056
Al      10.09965039       1.76090106      22.52581809
Al      14.23654224       1.31370126      22.75666293
Al      18.20196889       1.30769830      22.81801377
Al       1.90519246       4.25951127      22.81931176
Al       6.41311146       4.32550652      22.31082572
Al       9.58639024       4.31110092      22.51713386
Al      14.48024185       4.28554127      22.88115313
Al      18.17220792       4.25457264      22.84764150
Al       2.13772552       6.79043869      22.71290262
Al       5.79826725       7.24448323      22.95024145
Al      10.66493520       7.04854843      22.60147914
Al      14.13146642       6.86886075      22.76027631
Al      18.46287749       7.03647236      22.93110666
Al       1.71652229      10.15855462      22.90875616
Al       5.92662165      10.37056443      22.90997341
Al      10.42240440       9.72199412      22.77700891
Al      13.88759624       9.74383087      22.80542748
Al      18.11055832      10.01379414      22.98872501
Al       1.99008140      12.85994852      22.98819815
Al       5.92139738      13.03647046      22.82631244
Al      10.16490933      12.91250511      23.08380549
Al      14.24304634      12.81344184      22.82905377
Al      18.41053387      12.89671219      22.75573839
Al       1.93226913      15.80127826      22.75130543
Al       6.09951052      15.69465514      23.02738621
Al      10.13808146      15.83333040      22.89341845
Al      14.15013187      15.70386523      22.57650036
Al      18.06018894      15.62205739      22.67785884
Al       2.03130540      18.62491258      22.57558591
Al       6.08424195      18.60429408      22.68305283
Al      10.13697928      18.77252440      22.81269260
Al      13.89251165      18.58311843      22.67079356
Al      18.12891391      18.26394550      22.86665720
Al      -0.04981041      -0.03237772      24.22370331
Al       4.11531071      -0.07266379      24.44428734
Al       8.15772845      -0.07052565      23.93603749
Al      12.15052800       0.05489302      24.14029871
Al      16.12242744      -0.02475071      23.95666002
Al      -0.04162407       2.94113140      24.14245261
Al       4.07259202       2.72085976      24.22897401
Al       7.91419992       2.74919606      24.13667725
Al      12.05469759       2.99119773      23.64559400
Al      16.40012618       3.07706609      24.23978186
Al      -0.06818294       5.79802047      24.27969867
Al       4.18006045       5.44991220      24.08361500
Al       8.08308177       5.96128391      23.79390630
Al      12.16158112       5.51453931      24.12746817
Al      16.06292569       5.85171103      24.43363291
Al       0.13996125       8.60746771      24.18325156
Al       4.07020068       8.72004888      24.48721799
Al       8.00026157       8.68613453      24.35374480
Al      12.33166053       8.37934351      24.36396523
Al      15.98029928       8.61188956      24.20355314
Al      -0.11859322      11.42578894      24.32670699
Al       3.62150102      11.39336537      24.32267171
Al       8.31487587      11.49859965      24.60366185
Al      12.34178002      11.46563408      24.45538387
Al      16.21007625      11.40430645      24.22916174
Al       0.13887597      14.44943017      24.05175867
Al       3.90388403      14.28615563      24.37744981
Al       8.12764399      14.44574815      24.43226022
Al      12.14201030      14.41408359      24.27596416
Al      16.10843718      14.35580313      24.15113079
Al      -0.00396633      17.15383691      24.19057321
Al       4.08265500      17.14331570      23.89928593
Al       7.90633324      17.39915951      24.15041013
Al      12.32461039      17.13921784      24.29128774
Al      16.09891420      17.17469159      24.08226048
Al       1.86199863       1.46001585      25.81335856
Al       6.18748484       1.44197618      25.55811025
Al      10.00664609       1.58601865      25.11224680
Al      13.99167182       1.53325654      25.58737060
Al      18.21360439       1.60834985      25.70766604
Al       2.01723301       4.22288285      25.56941268
Al       6.48756284       4.46885798      25.34073386
Al       9.95507259       4.47761236      25.56632213
Al      14.12979901       4.27232264      25.67101743
Al      18.34866828       4.33985660      25.77013117
Al       2.06364734       6.99731407      25.74705799
Al       5.91855512       7.04127877      25.71684485
Al       9.92273482       7.08113350      25.18639387
Al      14.34521429       7.22194348      26.03776996
Al      18.38252913       7.37809369      25.96227040
Al       1.99322141      10.16541399      25.77745888
Al       6.03569339      10.15030035      25.95709054
Al      10.20976173       9.75928466      25.58080796
Al      14.29586938      10.13037728      25.72304210
Al      18.25804701       9.98037739      25.75552220
Al       1.88116559      13.24420477      25.83388219
Al       6.08215820      12.83341336      25.46337699
Al      10.35889966      13.06055700      25.61854462
Al      14.31789387      12.80212124      25.52700890
Al      18.22592825      12.93439132      25.50951123
Al       2.14531237      16.13813053      25.45686078
Al       6.12124180      15.70014587      25.64987610
Al      10.31199429      15.88885036      25.54423203
Al      14.27971210      15.95137908      25.85549992
Al      18.28467705      15.82115289      25.29611965
Al       1.92036540      18.70092286      25.45029613
Al       6.21742395      18.62380636      25.59389892
Al      10.00746163      18.58535913      25.48525916
Al      14.21278676      18.79488500      25.44727421
Al      18.17476151      18.56572170      25.48639163
Al       0.11608887       0.01841545      27.16314359
Al       3.98133210       0.07761240      27.28422630
Al       8.14783807      -0.16624785      26.82308167
Al      12.25340450      -0.00779343      26.92152925
Al      16.22396962      -0.01705837      26.74762248
Al      -0.19857503       2.80323837      27.37502118
Al       4.06278617       2.89920377      26.86312766
Al       8.03643630       2.79810974      27.20198647
Al      11.71696317       2.68257049      26.54224090
Al      16.32448834       2.77141333      27.39912589
Al      -0.08995438       5.62927690      27.17409477
Al       4.14531543       5.60109957      27.12980759
Al       8.38585769       5.77245224      27.38563323
Al      11.90409009       5.82817911      27.00691212
Al      16.35834212       5.77444616      27.20909010
Al       0.16928578       8.53670693      27.11154284
Al       4.10633680       8.51184725      27.15730363
Al       8.11216649       8.50810467      26.98374407
Al      11.98971823       8.50078201      27.02181380
Al      15.98258843       8.75959627      27.19297117
Al      -0.11600304      11.56838441      27.13706464
Al       4.19460786      11.33451968      27.28038481
Al       7.93615981      11.61988121      27.24316089
Al      12.14844677      11.16276781      27.11637145
Al      16.40032501      11.49566655      27.16531768
Al      -0.21672059      14.25369775      27.07095786
Al       3.93946326      14.40219374      26.96133099
Al       8.31227030      14.48909666      27.46773580
Al      12.36477650      14.12208474      27.17442987
Al      16.28532651      14.39099326      26.81784125
Al      -0.17630863      17.28124406      26.92813024
Al       3.80939023      17.45942835      26.80351690
Al       8.20612005      16.90825189      26.86585890
Al      12.19682575      17.11101527      27.18250447
Al      16.21612817      17.02769344      27.19897868
Al       2.15660874       1.62806425      28.54874958
Al       5.82895781       1.63601546      28.51608377
Al      10.05953475       1.30522634      28.50732888
Al      14.20373614       1.55986413      28.42862168
Al      18.14438283       1.35954672      28.62152799
Al       2.06521609       4.26526796      28.27135263
Al       6.15330958       4.17195961      28.80684418
Al      10.06340046       4.07725839      28.64839422
Al      14.15868389       4.38819421      28.32311488
Al      18.28039145       4.22709048      28.68442108
Al       2.20036703       7.15624245      28.56596261
Al       6.33825434       6.93718653      28.52460449
Al      10.11983286       7.29823940      28.68693632
Al      14.26405343       7.17361849      28.70426038
Al      18.22845762       7.25987544      28.68382558
Al       2.16219233      10.07355327      28.75806146
Al       6.29019228       9.72208799      28.73680305
Al      10.29361750      10.01122540      28.55357819
Al      14.16504466       9.88791006      28.66390351
Al      18.12225438       9.81429188      28.64190829
Al       1.89803988      12.87042431      28.63250138
Al       6.07124335      13.12759236      28.36768871
Al      10.39410089      12.77161640      28.61517732
Al      14.45860494      13.05104915      28.70290789
Al      18.31684829      13.03853352      28.67232331
Al       1.83524810      15.75928527      27.99678583
Al       5.92411449      15.89770315      28.44522508
Al      10.38688321      15.77595025      28.52730948
Al      14.29525672      15.66766477      28.47526867
Al      18.10176911      15.81290367      28.66941241
Al       1.94713700      18.63125114      28.40095002
Al       6.32262140      19.02013413      28.48029914
Al       9.98764151      18.54907590      28.40151726
Al      14.30368055      18.75596541      28.51612414
Al      18.18096684      18.47141638      28.28023268
Al      -0.05301571      -0.19265032      30.37559227
Al       3.79889123      -0.01041460      30.00010706
Al       8.07620069      -0.06617880      30.26362981
Al      12.08451105      -0.08429957      30.30846203
Al      16.22061462       0.13729620      29.88790641
Al       0.14266015       2.80465320      30.16777418
Al       3.89197374       2.98330178      30.11773182
Al       8.30624059       2.86128115      30.11273970
Al      12.05594714       2.74719911      29.87214680
Al      16.28942134       2.87348717      30.08797287
Al       0.04593658       5.61860329      30.00277571
Al       4.17087004       5.90392445      29.78790042
Al       8.08927953       5.70275378      30.28552814
Al      12.04178126       5.65341543      29.96147815
Al      16.47947732       5.77931111      29.96832744
Al      -0.01928520       8.51805056      29.87039259
Al       4.10645590       8.60798347      29.87377585
Al       8.20264545       8.53281194      30.10285033
Al      12.23464821       8.56969270      30.34613611
Al      16.15695243       8.68439748      30.18901644
Al       0.20112897      11.50302958      30.18135970
Al       4.23876004      11.25128565      29.99245233
Al       8.08406384      11.67420007      29.93842920
Al      12.33959584      11.47530442      30.05750336
Al      16.55343363      11.41579662      30.09857685
Al       0.19627953      14.41078916      30.19629368
Al       3.87548641      14.32002557      29.79185294
Al       8.19121282      14.34238919      30.07858413
Al      12.17613155      14.44998631      30.13769224
Al      16.22938263      14.35283167      30.23852991
Al      -0.14176655      17.04869548      29.91567699
Al       3.87173853      17.11670585      29.77500730
Al       8.04534662      17.20620072      29.95945143
Al      12.15302103      17.30446662      29.85086012
Al      15.91357278      17.28987178      29.91407216
Al       1.97242363       1.51205453      31.41732915
Al       6.16148310       1.48239765      31.52333860
Al      10.20767041       1.57892902      31.54753819
Al      13.96350457       1.26868295      31.57402087
Al      18.15993856       1.34010421      31.61813647
Al       2.14777285       4.34215484      31.57557725
Al       5.96057990       4.41625446      31.48141526
Al      10.47576138       4.45598454      31.54713446
Al      14.02493515       4.15265197      31.15747630
Al      18.06346723       4.14627707      31.49241691
Al       2.02502828       7.01808447      31.41532867
Al       6.05844611       7.29169897      31.58226706
Al      10.09803849       7.39772608      31.48624589
Al      13.97969314       7.02773614      31.32894253
Al      18.26638807       7.25831755      31.34249171
Al       1.97471442       9.74901578      31.64878362
Al       6.50253820      10.12292947      31.38525077
Al      10.36494047      10.08887180      31.26499368
Al      14.17987871       9.93414120      31.71081273
Al      18.38108580      10.09334109      31.53625999
Al       2.23776733      12.50595791      31.38880158
Al       5.97349775      12.88954194      31.26561745
Al      10.14358430      12.94532837      31.53303418
Al      14.06476717      12.96992260      31.53785674
Al      18.47134573      12.85341516      31.33066645
Al       1.96075166      15.72505299      31.41045161
Al       6.18411571      15.52530749      31.10105097
Al      10.14031409      15.95592912      31.31651975
Al      13.76240254      15.68719723      31.70590741
Al      18.07810245      15.75142869      31.38440092
Al       2.09572989      18.62393757      31.36088162
Al       5.78382683      18.47528816      31.17702088
Al       9.85031572      18.59525052      31.58778403
Al      14.13152698      18.55635516      31.73338730
Al      18.06886309      18.63472322      31.29068909
Al      -0.16924668       0.22117758      33.09942045
Al       4.20594612      -0.05390883      32.81154065
Al       7.85684046      -0.00121355      32.99348165
Al      11.89513636       0.07428742      32.99034265
Al      16.26363813       0.03241539      32.78932338
Al       0.12660599       2.92999274      32.89632600
Al       4.10654169       2.83886781      32.94980410
Al       8.01112797       2.86711025      33.08635170
Al      12.26593124       2.93877286      32.88433925
Al      16.09962577       3.13199913      33.20419448
Al      -0.23723890       5.83965969      32.99198381
Al       3.99894054       5.72931670      32.97480913
Al       8.21707375       5.50573850      33.03473884
Al      12.13445146       5.90640083      33.07645628
Al      16.19821264       5.84776255      32.81023862
Al      -0.06109810       8.58566022      33.15743445
Al       4.02454763       8.45998911      33.10591647
Al       8.16778032       8.43996258      32.83072389
Al      12.01854053       8.58025226      33.19224609
Al      16.31678315       8.71285441      32.85867816
Al      -0.11153031      11.59943026      33.00561576
Al       4.27032417      11.42765619      32.66311733
Al       8.23217982      11.60318999      32.88356207
Al      12.12428553      11.51701783      33.10400480
Al      16.32369097      11.48647564      33.01045447
Al      -0.49535563      14.61281977      33.16000420
Al       4.20835412      14.35848894      32.66490383
Al       7.87572040      14.28047818      32.68670728
Al      12.15296955      14.27571013      33.03590158
Al      16.15052908      14.13743961      33.00611639
Al      -0.36323452      17.62137260      32.69456992
Al       4.10267472      17.06966321      32.55229339
Al       7.84891423      17.35632778      33.16060777
Al      12.11927524      17.37342979      33.11429790
Al      15.78545809      16.93138966      33.03814834
Al       2.29985523       1.46814206      34.30816234
Al       5.96742565       1.47264340      34.53229718
Al      10.01002330       1.42541277      34.33254360
Al      14.34266070       1.39921144      34.28928795
Al      17.99700315       1.34139879      34.51095197
Al       2.20596324       4.27962713      34.42822765
Al       5.97844799       4.45579781      34.55474862
Al       9.99948190       4.10309283      34.42086765
Al      14.11947361       4.27708009      34.54466344
Al      18.48002189       4.19143505      34.36694545
Al       1.81204131       7.08591921      34.46378417
Al       5.87957800       6.99178902      34.46895595
Al       9.92460711       6.93907700      34.53328632
Al      14.20671769       7.04219625      34.33307653
Al      17.93555340       7.37617900      34.37329209
Al       1.98203569       9.99663056      34.26063522
Al       6.15563507       9.84408010      34.50193263
Al       9.92510673       9.66798108      34.32232923
Al      14.08027848       9.92684782      34.30709649
Al      18.05560459      10.17378231      34.36006993
Al       2.26510542      12.78126353      33.92741249
Al       5.73341860      12.82617044      34.50815008
Al      10.22232985      12.84707861      34.49700309
Al      14.15603542      12.92429302      34.56157166
Al      18.07867171      13.26076174      34.56744593
Al       2.08574110      15.49646198      34.09520678
Al       5.96156601      15.71774851      34.38472977
Al      10.00747273      15.77088041      34.01423466
Al      14.14379634      15.68630701      34.97059877
Al      17.98549482      15.85681740      34.40054791
Al       2.02098669      18.27226235      34.34313345
Al       5.85677532      18.38105753      34.68590440
Al       9.90338100      18.65113485      34.15776074
Al      14.24310387      18.58174575      34.51893371
Al      17.96715942      18.45709002      34.35978732
Al       0.11759949      -0.29116872      35.51037793
Al       4.05599796      -0.01269531      35.67480512
Al       8.11359166       0.01424646      35.85439641
Al      11.93953154      -0.07787419      35.76530124
Al      15.94597919       0.07025910      35.95682679
Al       0.15510465       2.49052008      35.53570393
Al       4.27242004       3.01698271      35.92779456
Al       8.15933176       2.84932190      35.86023031
Al      12.22118380       2.41968108      35.75812695
Al      16.29895039       2.97064988      35.82637754
Al      -0.07503319       5.64621389      35.92228364
Al       3.78982471       5.72964372      36.00682070
Al       8.26675528       5.58567808      36.28556005
Al      12.11481302       5.38665374      35.86514371
Al      16.23100563       5.75637570      35.55229320
Al      -0.18664266       8.67765317      35.81033734
Al       3.90564177       8.32489444      35.75627787
Al       8.14720169       8.32957771      35.82162967
Al      12.02860956       8.42748985      36.09006582
Al      16.23506009       8.64331390      35.97553969
Al      -0.20113850      11.45359888      35.73554632
Al       4.02843782      11.07747073      35.97849499
Al       8.01131671      11.64159785      35.70939268
Al      12.04378679      11.18958963      35.75596296
Al      15.86393214      11.34229148      35.72241298
Al       0.55093865      14.06327639      35.72099589
Al       3.80124296      14.16964213      35.88802310
Al       8.10789502      14.41555519      35.72274808
Al      11.91104737      14.23177419      35.92177494
Al      16.23864218      14.45553861      36.04467848
Al       0.30804350      16.88199328      35.68951301
Al       3.83430316      16.90335161      35.74660449
Al       7.99045193      17.31178423      35.89366724
Al      12.02189452      17.20899251      36.14041905
Al      16.32007052      17.42542014      35.93511822
Al       1.97956385       1.26416635      37.25720130
Al       6.15904457       1.47688017      37.42490274
Al      10.24827961       1.52567727      37.42227042
Al      14.17798118       1.56607728      37.31499528
Al      18.40329095       1.59277924      37.06224404
Al       1.84904482       4.21633939      37.14231181
Al       6.01418063       4.31315692      37.45018029
Al      10.19381036       4.23044270      37.20125641
Al      14.12805187       4.45166917      37.52308588
Al      18.24402142       4.47514860      37.28217605
Al       2.01618773       7.17049564      37.51513643
Al       5.93171824       7.11855424      37.44401129
Al       9.94549914       7.15049585      37.41767597
Al      14.23309540       7.23490322      37.12005013
Al      18.42990888       7.17219534      37.01295262
Al       1.95724022       9.83970972      37.01921852
Al       6.46664154      10.05243515      37.18560379
Al      10.15356754       9.93244755      37.27135608
Al      14.04042728      10.01647591      37.14033757
Al      18.08975007      10.23737082      37.49392849
Al       2.20205134      12.65192251      37.35719719
Al       5.97734177      12.90601716      37.40777651
Al      10.01552311      12.74213703      37.40264106
Al      13.88273129      12.91625677      37.38281387
Al      17.81793267      12.81448043      37.42582728
Al       1.96772206      15.74296852      37.28984692
Al       6.04171604      15.77786292      37.16133961
Al      10.04720079      15.72258822      37.43586402
Al      14.28238984      15.65506940      37.58991937
Al      18.45246731      16.01495245      37.45602226
Al       1.69986261      18.55239053      37.23549273
Al       6.11051570      18.74093453      37.31407881
Al      10.05352623      18.80257404      37.06446859
Al      14.22352800      18.67264358      37.49736423
Al      18.16881658      18.95876917      37.16449274
Al      -0.10321426      -0.08410883      38.65872233
Al       3.94782931       0.13023520      38.71185322
Al       8.21102537      -0.11871386      38.48211864
Al      12.23085516      -0.14499521      38.77783484
Al      16.35182289      -0.03645515      38.84883483
Al      -0.03937531       2.93671964      38.64653372
Al       3.88585117       2.68467670      38.91855903
Al       8.09107411       2.72202351      38.78067307
Al      12.46423542       2.95866541      38.96760417
Al      15.94467817       2.82992998      38.72160331
Al      -0.07510185       5.94287835      38.72128436
Al       4.05318471       5.34717953      38.86675238
Al       8.07226483       5.64575515      38.95761993
Al      12.19334055       5.68900575      38.67329295
Al      16.05996938       5.82505424      38.61183715
Al      -0.13027573       8.83289651      38.53554022
Al       4.08776874       8.75421353      38.38542123
Al       8.06306886       8.45021279      39.09473881
Al      12.18129123       8.40919532      38.89352776
Al      16.08102693       8.42091005      38.77424165
Al      -0.07010460      11.67459775      38.60487684
Al       3.91402725      11.25957524      38.75822567
Al       7.93940177      11.51357905      38.69741583
Al      12.43238717      11.51065907      38.74594420
Al      15.99561580      11.44116096      38.61023434
Al      -0.12769032      14.16655965      38.31280632
Al       4.03426390      14.50221890      38.62014188
Al       7.93992460      14.47750355      38.74106714
Al      12.15576438      14.52162722      38.72090889
Al      16.37011994      14.42539813      39.02391242
Al       0.07101726      17.29708845      39.03098577
Al       3.65954426      17.32808685      38.73996899
Al       7.97144735      17.15023766      38.77370872
Al      12.42852549      17.27714216      38.88690659
Al      16.07805548      17.12816775      38.87145987
Al       1.58796703       1.43546162      40.20838811
Al       5.91918595       1.40217646      39.96878637
Al      10.18724873       1.54429970      40.26103049
Al      14.06635181       1.27974844      40.62896998
Al      18.17383091       1.65749466      39.84012967
Al       1.90087330       4.11657111      40.36569754
Al       6.20423611       4.38762898      40.64509496
Al      10.05980424       4.19972716      39.98049858
Al      14.33473850       4.67004682      40.31745178
Al      17.92283388       4.55179324      40.00705999
Al       1.92827422       7.07868639      40.12983029
Al       5.95996674       7.21728998      40.43563975
Al       9.98045915       7.15887275      40.32271642
Al      13.78857838       7.24359805      41.23646277
Al      18.22456768       7.39650682      40.15629481
Al       1.84041597      10.06079237      39.95812385
Al       6.20179202      10.01446433      40.24371450
Al      10.17528621      10.19484996      40.12255911
Al      14.17295878       9.77199509      40.07219781
Al      18.22620885      10.15756245      40.26036837
Al       2.27450199      12.97460083      40.26393331
Al       6.02007307      12.85011870      40.13737601
Al      10.13771911      13.12533651      40.13672601
Al      14.07583139      12.99824427      40.44828862
Al      18.14513781      12.81839762      40.09619957
Al       1.85910426      15.63866483      39.92131174
Al       5.90968467      15.76278763      39.94088054
Al       9.98022498      15.78781487      40.21949069
Al      14.26915456      15.72696768      40.76017825
Al      18.39602583      15.68315791      40.37221778
Al       2.02477557      18.99630800      40.64291078
Al       5.73632545      18.44080556      40.29858547
Al      10.20881297      18.47396392      39.94575760
Al      14.31612352      18.59261416      40.65053321
Al      18.19698887      18.34511546      39.98716013
Al      -0.41988947      -0.08707380      41.45882524
Al       4.21754175       0.12927676      41.66060150
Al       7.95224039      -0.03254128      41.10536755
Al      11.82633469      -0.18117667      41.52641774
Al      16.48628522       0.02369690      41.56945134
Al      -0.55351451       3.15035700      41.48950873
Al       4.19019332       2.87473016      41.74778703
Al       8.01878219       2.46855514      41.66379904
Al      12.05231357       2.71129513      41.69157568
Al      16.12103760       2.97702049      41.55475152
Al      -0.19106485       6.06758858      41.57897937
Al       4.15249552       5.64750482      41.66570465
Al       8.21528069       5.87008126      41.80282757
Al      11.87845423       5.30920265      41.54326136
Al      16.34340007       5.95306093      41.64823525
Al       0.21285249       8.66341865      41.58419960
Al       3.79343431       8.67556084      41.20124942
Al       8.39796657       8.63657464      41.64660821
Al      11.60994339       8.53774048      41.88815594
Al      16.31164063       8.59231067      41.35882127
Al       0.24236870      11.39052008      41.61599335
Al       4.15013900      11.54387900      41.53363644
Al       8.03402249      11.46923838      41.42862218
Al      12.14530373      11.31661828      41.43087903
Al      16.17622651      11.33744874      41.47372288
Al       0.03244782      13.93393235      41.41238012