622
Lattice="19.302496080015516 0.0 0.0 0.0 19.302496080015516 0.0 0.0 0.0 19.302496080015516" Properties=species:S:1:pos:R:3 ipi_comment="Step:         999  Bead:       0 positions{ase}  cell{ase}" pbc="T T T"
H        0.62007694      17.33201230      12.77716084
H       18.59122026      16.88603337      12.45391591
O       19.11302611      17.76431864      12.59922018
H       14.63408757       2.54487684       4.41686429
H       14.96136263       4.16918544       4.72022239
O       14.36146557       3.43584786       4.88106561
H        2.78379321       3.71510708       9.82965787
H        2.96411106       3.07197138      11.23662968
O        3.26074587       3.87159601      10.69042203
H       14.58812645       5.47378935       9.88168653
H       16.00566098       5.18401505       9.13944499
O       15.30177347       5.91151831       9.38419697
H       14.94852907      16.30591062       1.24210686
H       15.15474009      17.13714197       2.64848333
O       15.19874365      17.17813050       1.61980555
H       16.44541911      11.78256944      10.55073551
H       17.37682469      13.03759531      10.51235335
O       17.09693704      12.27370982      11.09888053
H        7.89384824      18.32786879      15.33194088
H        8.30207466      18.70982667      13.70989962
O        8.02570455      17.92598020      14.33203937
H       16.53626723       1.19720374       6.97454812
H       17.80256568       0.90940213       6.14438535
O       17.42778112       0.77777286       7.08224581
H       13.44869658       9.56172645       0.12984210
H       14.61798517      10.33056031       0.78544566
O       13.90519786      10.35962290       0.03123795
H       11.17026522      10.83775815       7.19388080
H       10.04486099       9.77002518       7.68528807
O       10.37917252      10.73163055       7.81814636
H       16.44275272      10.48576042       2.00587178
H       15.46642988       9.28687090       1.90360277
O       16.00955439       9.91987079       1.42320522
H        2.87731579       8.53663079       9.29224306
H        1.49787383       7.79129563       9.02783622
O        2.33673258       8.17999698       8.57318149
H        1.81459476       3.21133070      14.01159254
H        1.72533136       1.81541603      13.55483673
O        1.21673092       2.43414798      14.20870498
H       13.37928016       0.66126517      11.35905543
H       11.86955727       0.64623036      10.74170991
O       12.83265931       0.31815059      10.52422379
H       17.86402323       5.38351792      17.60093210
H       17.66013907       6.63756653      18.69256034
O       17.23030490       5.89442101      18.17533254
H       13.85526616      13.96892874       0.72434026
H       14.91784643      14.44090377      18.87748553
O       14.71021366      14.45845111       0.56507116
H        4.43877282      10.02570426      11.26121314
H        2.81129380      10.27059662      11.10592271
O        3.50963154       9.60506907      11.33300891
H       14.70950176      16.01470952      13.11827776
H       13.20416192      16.04798590      13.97088276
O       13.69011731      15.73993068      13.18875647
H       12.91800659       5.92343315      15.00197369
H       14.01268518       5.57463964      14.02685868
O       13.02854121       5.42216849      14.16981376
H       19.09361356       8.61261131      18.59680424
H       17.93613385       8.60986317       0.22503869
O       18.37306264       7.95538066      18.99229648
H       16.67871249      16.02172240      12.69354508
H       16.27496473      16.31512121      14.18153284
O       15.97525887      16.53619146      13.17413360
H       10.21322930       1.98548397       6.41050051
H       10.08405706       3.29147734       7.31853351
O       10.33861156       2.35366633       7.33571457
H        7.39045247       5.99253984       2.73568273
H        7.06439887       6.56149748       4.25236730
O        7.36837854       6.83557907       3.31590437
H        3.82741245      15.86097201       5.84866876
H        2.59070534      15.12469912       5.38679127
O        3.22670412      15.13291781       6.12866741
H       18.65013000       9.74098226      10.87346334
H       18.48739279      11.09133791      11.41589138
O       19.06512662      10.35224473      11.44078301
H        7.54168653       7.83439608      12.27121846
H        7.28760225       9.23612438      11.41200420
O        7.95414288       8.49428507      11.56796262
H        4.58085534       7.67838595      15.64557713
H        3.48497295       8.73667827      15.22591416
O        4.16643488       8.59239075      15.93329096
H       13.04995169       7.93938143      15.85433095
H       14.17732393       6.91860247      16.54053187
O       13.17546058       6.98810165      16.27119280
H       18.85723956      18.82748923      13.92702349
H        0.21560822       0.94921942      14.25212582
O       18.71902423       0.41894792      14.35783064
H        4.91713009      17.63444309       5.34026460
H        5.58467271      16.23177891       4.99953793
O        4.74169024      16.72092692       4.90916862
H        1.03092285       9.59163661      14.65928541
H        1.06681569      11.17509895      15.03986190
O        0.60453256      10.35361702      15.20305519
H       11.27019727      11.74685470       5.35968018
H       12.43246138      10.77274369       5.41993143
O       12.18252705      11.62456467       5.80442606
H        2.89848767       8.69635494      13.04337209
H        2.02603066       7.86248594      14.06216322
O        2.47469770       8.74041804      13.93588897
H        6.33012920      12.25377305      18.30061995
H        6.72203705      11.21206342      17.05904115
O        7.00228184      11.61939834      17.99314493
H        4.23623171      13.92917226       6.27236062
H        5.77324959      13.53428444       5.87798717
O        5.04866551      13.27505502       6.45620333
H        9.04756924       5.35069562       1.62237208
H        8.08411429       4.17724167       1.21244137
O        8.09802099       5.18202924       1.45796591
H       14.78786494       0.02495259       3.98001017
H       15.99640347       0.87387053       3.67064823
O       15.07372766       0.96486545       3.79042523
H       17.75555313      11.91070589      17.60780676
H       17.34098182      11.57269053      16.07955043
O       16.96855541      11.77290175      17.02818399
H       17.24818777      16.39217512       7.06729475
H       18.79799332      16.49908979       7.56719517
O       18.08919579      15.87713494       7.31319262
H        1.58980414       5.59479179      13.07652261
H        2.60984044       4.59754100      12.27368939
O        2.43922862       4.91801447      13.27571217
H        7.82835097      15.14660050       4.99694365
H        6.72779568      14.85246307       3.95511293
O        6.87253577      15.29431601       4.87425252
H        5.40551223       0.08264340       6.72594196
H        5.63410392       0.18607432       5.14038484
O        5.02073608      19.08718381       5.84608762
H        3.93427113      14.70217550       1.55858564
H        3.71723303      13.06025852       1.15269214
O        4.30465120      13.86180419       1.09589890
H       12.55372569       0.31567188       0.32165703
H       11.00884530      19.16213639       0.26885053
O       11.68713327       0.55400013      19.27420929
H        6.86266337      17.96334423      11.70350954
H        6.79989316      17.76051957      13.30877866
O        6.30321235      17.65412154      12.48709290
H        9.36021060      13.62329961       7.46937936
H        9.64119118      12.13707567       8.04509510
O        9.00158714      12.86594215       7.99413339
H        5.03089517       3.70161908       3.67263305
H        6.04881247       3.66363556       4.84417383
O        5.06864667       3.86847452       4.62317875
H       17.14472909       8.63257709      14.40407656
H       16.69455857       7.52693015      15.47309708
O       17.26621945       7.70405309      14.65556279
H       12.95842349      16.39569771      12.00212561
H       13.26930657      17.31078597      10.70939011
O       12.64151236      16.67618271      11.02175094
H       11.82483602      13.27405606      19.12129214
H       12.61471155      11.98236897       0.04278751
O       12.45858512      12.84289702       0.47045323
H       15.19206374       5.99423149       5.97119743
H       14.98798837       6.01673905       7.61964951
O       14.52590756       6.14849521       6.76416570
H        6.07027895       9.52376808       7.31568295
H        6.50174778       8.28817571       8.17827854
O        6.42054163       9.24358074       8.16686419
H       17.87963121       0.92722998       8.78633718
H       17.33519242       0.64953398      10.30601666
O       17.95612107       1.16523005       9.74676417
H       13.82465871      17.32479055       4.76644182
H       15.20928667      17.36949944       5.37067073
O       14.72962169      17.53305498       4.51602543
H        7.60246844       7.68796307      14.04204863
H        7.73802823       6.15665286      13.95856355
O        7.12361397       6.93151099      13.65823385
H        8.93193439       2.33265594       1.23835271
H        7.85100407       2.27173972      19.26292713
O        7.99828469       2.57496463       0.94801032
H        8.22056984       2.34314600      17.18053204
H        6.66849292       2.12469724      17.63663777
O        7.65801562       1.84823531      17.84484772
H        7.38190987       1.79241781       4.53696319
H        7.46518457       2.47377328       5.99303829
O        7.49020694       2.71912123       5.04998124
H        4.73779128       2.09694540       1.68219400
H        6.15916952       2.53443118       1.58663515
O        5.35897042       2.60448735       2.19699200
H       12.03361834       1.64998443       7.81689716
H       12.75799885       0.87668201       8.98153707
O       12.88098664       1.12093488       8.00413607
H       10.75113906       2.72552465       4.64144099
H        9.19973278       2.12388294       4.88074978
O       10.17799917       1.96403969       4.80350213
H       13.04985886      13.91308400      15.48024316
H       12.54576836      14.34125627      16.99898769
O       12.98657491      14.65324576      16.15911990
H        2.78064195      11.14044825      17.38143192
H        2.22815197      12.40021614      16.67296737
O        2.95378951      12.12871771      17.31035863
H       13.24403142      12.91870778      13.71126234
H       13.86241020      14.31320373      13.75570610
O       13.93864174      13.43028491      14.23423288
H        3.10948812      14.12217383       9.72772413
H        2.19308859      13.33667858      10.66557018
O        2.41590955      14.26358986      10.40023718
H        5.03744389      13.64143623      19.02218799
H        4.57281977      13.03268023      17.74888675
O        5.36925613      13.36968049      18.10080831
H       16.18536128       6.45908554      13.85050866
H       16.47186425       4.94214026      13.94739970
O       15.76160612       5.53512573      13.72089900
H        8.32945263      14.99577208      12.09054154
H        7.00230861      15.13446367      11.33360720
O        7.65491227      14.52168107      11.56047689
H       14.67496712      14.18781086      16.70911047
H       16.04678371      13.50869346      17.22672473
O       15.60065695      14.38012931      17.15912812
H       18.72930796       7.24702938       9.30252780
H       19.05268153       8.59051417       8.42692281
O       19.15643384       8.09137255       9.31009931
H        8.91305209       7.92541774       3.12346788
H        9.97427268       8.46642526       2.04109211
O        9.89647535       8.17378930       2.98511331
H       17.68021964      10.95981054       3.77643579
H       17.79811880      12.20845065       2.94840514
O       18.09103225      11.29065107       2.94720336
H        3.27327421       7.10702805      18.53542841
H        3.26447935       7.66141807      17.06450365
O        2.66137654       7.14796916      17.69736429
H        5.02873784       2.91286647       7.57596937
H        5.95325188       3.05353782       8.92238002
O        5.75258381       2.57626428       8.09113013
H        2.34220464      17.56829296       9.36873695
H        2.49434685      18.92432199      10.33132211
O        2.93075194      18.07585257      10.05277649
H       13.71170439       4.14399574      12.39770186
H        9.01476985       4.33685511      16.07187914
O       14.53968812       3.80439160      12.02762073
H       15.47666213      10.08467553       9.46497993
H       16.05598572      11.08148860       8.19202984
O       15.83784927      10.98910170       9.16663478
H       17.76227085      14.75364250       8.78981194
H       16.32752197      14.21530038       9.04666303
O       17.20641267      14.41794442       9.57228005
H        4.06611358       8.06502202       1.20541235
H        4.97787780       6.84221253       0.44421900
O        4.06459673       7.26397961       0.62243399
H        5.25774830      14.34313664      16.82928251
H        6.12710627      14.68403435      15.44616559
O        5.37347144      14.94906075      16.02281874
H       16.33936819      18.46966373       6.78225389
H       14.85714967      17.94366378       7.19977263
O       15.83402698      17.65475675       6.97519896
H       12.35663953       3.54564413      15.16450959
H       11.80279439       2.17541881      14.60133177
O       11.70467964       2.90147144      15.39554369
H        2.93176806      15.80158652      14.08712505
H        3.77237045      15.21309877      15.20397141
O        2.83605383      15.46541419      14.95768101
H       13.80479460       8.41272500       3.34831902
H       13.56358929       7.52376502       2.06356005
O       14.28963751       7.73243887       2.72338951
H       11.13679510      11.31970159      12.23545378
H       11.17993669      11.96428231      13.62729996
O       11.57373852      12.11496039      12.76399300
H        6.68122573       0.18476355       3.06633760
H        6.00804330       1.64460745       3.32734395
O        6.30052071       0.77245316       3.75787436
H       12.61483062       0.78608692      13.43193822
H       12.06962546       0.41315977      14.91938563
O       11.78248553       0.80603454      14.01317799
H       17.05548992      16.84581422      15.91748323
H       16.22033438      15.32358696      16.16423880
O       16.70590128      16.01734161      15.47704246
H        3.22203577       6.11079820       4.34077199
H        4.55450152       5.40252064       4.85593326
O        3.97109230       6.19042468       5.00569310
H        1.26591193       6.00756202       2.93111914
H        1.05503356       6.08076326       4.53107941
O        1.69254843       5.99359856       3.85194486
H        8.04671693      14.44465642       2.36773193
H        9.36625720      14.93897177       3.00578916
O        9.03108565      14.40500992       2.28340783
H       14.18683017       0.06728569      16.93066860
H       15.13359598       4.46108894      12.51659771
O       15.02372178       0.07987205      17.37713793
H       13.20372399       6.94021806       6.74171741
H       11.54895830       6.81492863       6.66280988
O       12.26187881       7.42943696       6.73515053
H       14.12951575       1.89176691       7.50565564
H       14.67752909       2.84685837       6.34409408
O       14.95035291       2.37527208       7.21915393
H        5.69263879      13.66378664       1.91689698
H        6.72233773      12.98233329       2.93402116
O        6.43720504      13.96642025       2.54393742
H        0.44007997      13.47425921      14.94844015
H        1.92208962      13.92086981      15.26963015
O        1.20416929      13.29360637      15.59706817
H       17.03581853       2.64963215       9.29080367
H       15.97094216       2.93235522       8.17209335
O       16.49213401       3.45704594       8.99416747
H        5.78579435       6.23558611      14.14498412
H        4.24315909       5.77583771      14.29224379
O        4.98384985       6.17081937      14.74576283
H       15.94212679      18.19847609      12.42678740
H       16.93120449      19.29880182      12.92983202
O       16.23431675      19.18447116      12.20987441
H        2.22605267       9.24448938       7.33950153
H        2.48435427      10.83589041       7.09049679
O        2.16059675      10.04462945       6.61551682
H       12.67039938      15.18098227      10.29789034
H       12.15612431      13.72291228      10.08530012
O       12.72705741      14.39042563       9.71290499
H       12.75979193       3.80442274       4.47967146
H       11.90186143       4.01930754       3.25367135
O       11.81388634       3.85389635       4.23352838
H        1.06014286       9.77562287      16.82744249
H        1.55018489       8.41433998      17.80102829
O        0.94775512       9.14281218      17.56313720
H        6.50386072       6.28223843      18.28023064
H        7.23595313       6.19563589       0.33661616
O        6.72999842       6.85366016      19.11117038
H        0.52310846       6.86319768       0.89841158
H        2.07233583       6.62415023       0.94958847
O        1.22042707       6.25825134       1.20271113
H       10.13419463       1.23419442       8.97317940
H        9.99755341      19.17540232       9.84681586
O       10.15077530       0.86220291       9.89484741
H       14.94663255      12.46338253       8.76388950
H       14.18183488      13.80875803       9.05650327
O       14.83679164      13.37788454       8.43705086
H        7.43105454       8.49009549       0.10528490
H        7.55741557      10.10180309      18.86908166
O        7.87637557       9.40185693       0.18896220
H        2.60204454       4.53050799       7.81017993
H        2.42704841       3.09984355       7.66756112
O        2.06714629       3.84874833       8.28257574
H       15.75310288       8.14129795      17.04646543
H       16.36675427       6.49610610      17.23022614
O       15.75615424       7.17691668      16.64307739
H       12.64739762      17.21783803       7.18874575
H       12.95870096      18.76621578       7.35031852
O       13.38267458      17.89234206       7.20553530
H        3.37723136      12.15311701       8.25001578
H        2.38428698      12.86709953       7.24263799
O        2.49310269      12.18962385       7.93717566
H        2.91908936       9.44292823       5.32976090
H        3.96219249       8.22154856       4.91004647
O        3.61010546       9.08386565       4.64330873
H       15.05203618       0.97930242      12.60213116
H       14.29379228       2.36490159      12.29247836
O       14.10482286       1.33121691      12.50613489
H        2.84698987       1.26899951      15.61532690
H        3.94246258       0.63963926      14.41544550
O        3.80398591       1.07146731      15.34479363
H       13.93645210      12.36631770       5.75209534
H       14.81243473      13.13813834       6.83352413
O       14.81989361      12.84633888       5.82135033
H       18.01666592      19.19354399      15.85875564
H       16.66693537      19.02912369      16.69110098
O       17.59541875      18.64506800      16.62207606
H       10.31034386      15.70078469      13.01222682
H        9.13844019      16.82174645      13.59386617
O        9.42192952      16.09467557      12.93135568
H        0.37827632       9.73498500       6.87344534
H       18.05452139       9.82896266       6.68522412
O       18.84575005       9.23646596       6.85981083
H        6.11883258       9.64410913       9.72055865
H        6.64775650      11.02752876      10.32094207
O        6.11429136      10.25889570      10.49992494
H       10.90566815       6.60264992       2.51795597
H       11.82279571       5.92279793       1.59396185
O       11.13773905       5.70378613       2.22777502
H       19.02830492       7.58702197       6.10051296
H       18.86403195       6.13467038       6.77299587
O       19.05177941       6.62450820       5.84852245
H       17.49271637       6.14738323       5.11439378
H       16.26425671       6.35600789       4.10501606
O       16.51237904       5.98860956       4.95092098
H        5.07135926      11.57981187       6.12745353
H        4.69737765      10.03744804       5.55663117
O        5.36835860      10.63156528       6.06577145
H       11.99875346      11.92900144       2.25343055
H       10.62083617      12.48148032       2.00989586
O       11.07476640      11.77892425       2.54314027
H       10.33348814      14.48452741      18.30974278
H       10.35020680      13.21639452      17.35140269
O       10.94938340      13.72979802      17.99914577
H        4.76142493      17.07953342      16.53328892
H        4.36448067      18.56739453      16.22232260
O        4.92984206      18.02573164      16.81714819
H        8.87294484       9.84341019      14.58738194
H        8.32485942       9.43680128      13.12284042
O        8.00275346       9.57375529      14.09565152
H        9.79442152       5.24283446      13.80020837
H        8.53705630       4.19699076      13.91668881
O        8.82901506       5.07777443      14.25913944
H        7.52660069       0.71592125       1.28738941
H        6.91738252      18.52176741       0.98577897
O        7.53210917      19.09034363       1.56944348
H       13.57813117       8.80824095       9.64328550
H       14.79687925       7.91991969       9.66607188
O       14.56495163       8.89977243       9.79282468
H        1.41056900      12.76760994       3.91801630
H        0.53248756      11.56166366       3.46163711
O        1.46336036      11.89497433       3.67749261
H        5.37294497       9.98198171      15.88887420
H        6.55740107      10.26022966      14.95361507
O        6.05687755      10.68585863      15.67462763
H        7.35974010      13.18855945      10.56441632
H        7.82060134      12.86150941       9.05832222
O        7.03128093      12.80073698       9.74401729
H        7.56668801       0.09925180      17.50191831
H        6.47109645      18.68639154      16.60152279
O        7.44526624      18.60573330      16.85291796
H       11.37123876       8.68909587       3.91389938
H       12.34849749       8.37539982       4.95680978
O       12.14193128       9.08500283       4.36358253
H       12.20866768       6.43226567      19.09407610
H       11.74500821       8.02345126       0.19336872
O       12.41357098       7.27925633       0.29290321
H       11.81222570       5.46347487      13.38703358
H       10.98215576       6.17306551      12.21916371
O       10.91753785       5.48721372      12.88818862
H        7.38086836       2.03289004      13.39302329
H        7.13753479       1.29198057      11.88754016
O        6.86481453       2.02549170      12.54436164
H       16.21466706      11.58487781       5.88934146
H       15.59113356      10.27242653       6.35275169
O       16.45823706      10.67060384       6.25535235
H        2.63421903      16.80397861      11.54806005
H        2.46308554      15.26932795      11.76114042
O        2.37077684      16.23921458      12.27608222
H       10.82830042      10.11106112       0.92585062
H        9.55984060       9.30546816       0.35682840
O       10.49151459       9.22308647       0.65837526
H        5.31645367       0.85500537       8.44413401
H        4.34339863      18.90438319       8.90117022
O        5.29429902      19.21268462       8.66590732
H       15.94007237      13.36713265       4.16259838
H       16.25536902      14.07496755       2.80625856
O       16.63327608      13.78552724       3.61270367
H        8.26541596      12.81465627      15.63038038
H        8.25158070      12.23159820      17.11170539
O        8.85857455      12.44462433      16.30206968
H        3.74304245       5.99737617       6.55532789
H        3.11553381       6.87522956       7.74392461
O        3.50969814       6.03967141       7.56608095
H        8.26593209      15.77626851      18.95699898
H        9.16666793      15.14467826       0.92414230
O        9.21055532      15.54415725      19.26902581
H        1.86293521       1.00529019      11.66177129
H        3.36482007       1.13832027      12.28000868
O        2.48479419       1.56848743      12.19111901
H        4.71322170      13.82578776       8.15674573
H        5.40568376      13.14381980       9.36404931
O        4.53132672      13.39109906       9.01709732
H        6.07305915       3.39197245      11.34775207
H        4.90802974       4.01522695      10.55135305
O        5.91608676       3.88034349      10.48930065
H        4.96734736       1.40220189      18.25136632
H        4.77465253       1.87166540      16.74668539
O        5.24589600       2.05628683      17.60791271
H        0.38035040       5.14293268       8.64716237
H       18.37116309       4.48394376       8.63869797
O       18.78708047       5.38823623       8.55428268
H       10.77205005      16.65968124       8.24630452
H       11.55772087      15.46974349       8.51001701
O       11.19033869      16.02655018       7.71144034
H       17.92459943      14.56864014      14.63765949
H       17.51965746      13.28653092      13.73271922
O       18.34465491      13.83462044      14.11937220
H       13.28870702      10.25526616      14.93314100
H       13.78087764       9.77833418      16.31212788
O       12.91834966       9.73240081      15.72922218
H       11.67017118       4.56359438      18.43144856
H       12.77543367       5.33580846      17.68338595
O       12.59271328       5.00182695      18.55303024
H       18.48493423      14.69443057      12.61867397
H       17.73544079      15.15813646      11.11115459
O       17.97380613      15.43746106      12.05918726
H        1.69017917      15.36001612       9.39114387
H        2.35208221      15.95178732       8.05169451
O        1.60281985      16.08396854       8.68372469
H       19.16707171       0.76398725      10.34675982
H        0.46624761      19.01069444      11.41903545
O        0.79154140       0.38930157      10.84230203
H        1.77889412      11.89587997       9.68488575
H        0.95805596      11.02769729      10.85560517
O        1.81642465      11.61367554      10.64434084
H        2.45303038      11.88350146       2.15932676
H        3.15354565      10.76221024       1.27709611
O        2.80268561      11.68889651       1.30286013
H       10.31271764      17.22593515       0.26587130
H        9.40575435      18.19584195       1.14070361
O       10.32626234      18.06659504       0.75641180
H       10.18998187       1.60424756       2.88132716
H       10.91433917       1.23964429       1.41914631
O       10.35929378       1.88318671       1.95959027
H        9.45283539      16.92150088      10.85017402
H       10.77163055      17.42818614      10.75517803
O        9.91730134      17.58604561      10.34808555
H        9.51239191       0.76219417      12.06618565
H       10.19243083       0.63936985      13.51714349
O        9.37121957       0.40721621      13.00652446
H        6.93940536      14.23429115      13.30333283
H       14.75325863      19.10137454      18.33593260
O        7.19322672      14.09471562      14.27257947
H       15.43715033      13.15494553      13.75818960
H       16.31249725      12.56969177      12.37889799
O       16.32136880      12.89557989      13.33758822
H        9.70190443       7.62154753       8.59969523
H        8.55933139       8.69303316       8.47667415
O        9.24440621       8.19805890       7.90304562
H       17.13402309      11.09391553      13.97254542
H       18.47559448      10.52425761      14.76739934
O       17.40735093      10.46728627      14.67818615
H        5.13154467       5.30470374      16.14204680
H        5.51104754       4.18613780      17.19841083
O        5.61411799       5.15150065      17.07146859
H       18.80517673       7.23412566      14.28236395
H        0.18350738       5.94499044      14.68809550
O        0.30288883       6.65957991      14.01301152
H        7.83694804       6.70965895       6.37002155
H        6.65535108       5.81098890       6.68360433
O        7.25983729       6.07444724       5.97255763
H        9.75853978      14.04536157       5.01441583
H        9.71257311      15.46060757       5.81145510
O        9.45022221      14.97152414       4.99885228
H       12.58071471       1.43393543      16.44791845
H       11.92766959       0.58793868      17.53364477
O       12.33903667       0.43888416      16.57292282
H        6.73471874      10.66047450       3.37477222
H        6.50043198      11.45114819       4.68620739
O        6.95998664      11.58491159       3.83709268
H        6.73046449       8.55596059       2.71649016
H        6.94319219       9.53180918       1.43356765
O        6.44039302       9.43677555       2.43278982
H        4.01250563       3.00469184       5.41517579
H        3.84948892       1.48552804       6.02489492
O        3.64134356       2.44263003       6.17112108
H       18.20953886      15.24245197       5.84093744
H       17.41708622      15.02892938       4.41001992
O       18.27441659      15.29618679       4.84420712
H        9.08496962      12.16981017       4.71888944
H       10.45226643      12.30617087       3.85083289
O       10.00504750      12.52700501       4.77197040
H       14.38985916       0.43762992       1.61402572
H       14.44619632      18.32087710       0.93998787
O       14.18656479      19.29964637       0.73490900
H        0.48998748      13.13773924      17.37784980
H        0.55624256      12.72052624      18.80802365
O       19.25121923      12.66485708      18.10360337
H       14.38743896       9.40485380       7.73079713
H       14.66093177       8.38808076       6.84046283
O       14.35974564       9.30738180       6.76547847
H        3.55666830       9.05201857       2.84081187
H        4.95892786       9.49514139       2.21244352
O        3.96791279       9.21394854       1.94495908
H        3.33842289      17.39713573       1.78554164
H        3.84845845      16.89437969       3.15980820