622
Lattice="19.302496080015516 0.0 0.0 0.0 19.302496080015516 0.0 0.0 0.0 19.302496080015516" Properties=species:S:1:pos:R:3 ipi_comment="Step:         999  Bead:       0 positions{ase}  cell{ase}" pbc="T T T"
H       10.27132498       7.68076426       3.12591280
H        8.93997222       7.23478533       2.80266787
O        9.46177807       8.11307060       2.94797214
H        4.98283953      12.19612488      14.06811233
H        5.31011459      13.82043348      14.37147043
O        4.71021753      13.08709590      14.53231365
H       12.43504125      13.36635512       0.17840983
H       12.61535910      12.72321942       1.58538164
O       12.91199391      13.52284405       1.03917399
H        4.93687841      15.12503739       0.23043849
H        6.35441294      14.83526309      18.79069303
O        5.65052543      15.56276635      19.03544501
H        5.29728103       6.65466258      10.89335490
H        5.50349205       7.48589393      12.29973137
O        5.54749561       7.52688246      11.27105359
H        6.79417107       2.13132140       0.89948747
H        7.72557665       3.38634727       0.86110531
O        7.44568900       2.62246178       1.44763249
H       17.54509628       8.67662075       5.68069284
H       17.95332270       9.05857863       4.05865158
O       17.67695259       8.27473216       4.68079133
H        6.88501919      10.84845178      16.62579616
H        8.15131764      10.56065017      15.79563339
O        7.77653308      10.42902090      16.73349385
H        3.79744854      19.21297449       9.78109014
H        4.96673713       0.67931227      10.43669370
O        4.25394982       0.70837486       9.68248599
H        1.51901718       1.18651011      16.84512884
H        0.39361295       0.11877714      17.33653611
O        0.72792448       1.08038251      17.46939440
H        6.79150468       0.83451238      11.65711982
H        5.81518184      18.93811894      11.55485081
O        6.35830635       0.26862275      11.07445326
H       12.52856383      18.18787883      18.94349110
H       11.14912187      17.44254367      18.67908426
O       11.98798062      17.83124502      18.22442953
H       11.46584280      12.86257874       4.36034450
H       11.37657940      11.46666407       3.90358869
O       10.86797896      12.08539602       4.55745694
H        3.72803212      10.31251321       1.70780739
H        2.21830923      10.29747840       1.09046187
O        3.18141127       9.96939863       0.87297575
H        8.21277519      15.03476596       7.94968406
H        8.00889103      16.28881457       9.04131230
O        7.57905686      15.54566905       8.52408450
H        4.20401812       4.31768070      10.37558830
H        5.26659839       4.78965573       9.22623749
O        5.05896562       4.80720307      10.21631920
H       14.09002086       0.37445622       1.60996510
H       12.46254184       0.61934858       1.45467467
O       13.16087958      19.25631711       1.68176087
H        5.05825372       6.36346148       3.46702972
H        3.55291388       6.39673786       4.31963472
O        4.03886927       6.08868264       3.53750843
H        3.26675855      15.57468119       5.35072565
H        4.36143714      15.22588768       4.37561064
O        3.37729317      15.07341653       4.51856572
H        9.44236552      18.26385935       8.94555620
H        8.28488581      18.26111121       9.87628673
O        8.72181460      17.60662870       9.34104844
H        7.02746445       6.37047436       3.04229704
H        6.62371669       6.66387317       4.53028480
O        6.32401083       6.88494342       3.52288556
H        0.56198126      11.63673201      16.06174855
H        0.43280902      12.94272538      16.96978155
O        0.68736352      12.00491437      16.98696261
H       17.04170051      15.64378788      12.38693077
H       16.71564691      16.21274552      13.90361534
O       17.01962658      16.48682711      12.96715241
H       13.47866049       6.20972397      15.49991680
H       12.24195338       5.47345108      15.03803931
O       12.87795216       5.48166977      15.77991545
H        8.99888196       0.08973422       1.22221530
H        8.83614475       1.44008987       1.76464334
O        9.41387858       0.70099669       1.78953497
H       17.19293457      17.48564412       2.61997042
H       16.93885029      18.88737242       1.76075616
O       17.60539092      18.14553311       1.91671458
H       14.23210338      17.32963399       5.99432909
H       13.13622099      18.38792631       5.57466612
O       13.81768292      18.24363879       6.28204292
H        3.39870365      17.59062947       6.20308291
H        4.52607589      16.56985051       6.88928383
O        3.52421254      16.63934969       6.61994476
H        9.20599152       9.17624119       4.27577545
H        9.86685626      10.60046746       4.60087778
O        9.06777619      10.07019596       4.70658260
H       14.56837813       7.98319505      14.99151264
H       15.23592075       6.58053087      14.65078597
O       14.39293828       7.06967888      14.56041666
H       10.68217089      19.24288465       5.00803737
H       10.71806373       1.52385091       5.38861386
O       10.25578060       0.70236898       5.55180715
H        1.61894923       2.09560666      15.01092822
H        2.78121334       1.12149565      15.07117947
O        2.53127901       1.97331663      15.45567410
H       12.54973571      18.34760298       3.39212405
H       11.67727870      17.51373398       4.41091518
O       12.12594574      18.39166608       4.28464093
H       15.98137724       2.60252501       8.64937191
H       16.37328509       1.56081538       7.40779311
O       16.65352988       1.96815030       8.34189689
H       13.88747975       4.27792422      15.92360866
H       15.42449763       3.88303640      15.52923521
O       14.69991355       3.62380698      16.10745137
H       18.69881728      15.00194366      11.27362012
H       17.73536233      13.82848971      10.86368941
O       17.74926903      14.83327728      11.10921395
H        5.13661690       9.67620063      13.63125821
H        6.34515543      10.52511857      13.32189627
O        5.42247962      10.61611349      13.44167327
H        8.10430509       2.25945785       7.95655872
H        7.68973378       1.92144249       6.42830239
O        7.31730737       2.12165371       7.37693595
H        7.59693973       6.74092708      16.71854279
H        9.14674528       6.84784175      17.21844321
O        8.43794775       6.22588690      16.96444066
H       11.24105218      15.24603983       3.42527457
H       12.26108848      14.24878904       2.62244135
O       12.09047666      14.56926251       3.62446413
H       17.47959901       5.49535246      14.64819169
H       16.37904372       5.20121503      13.60636097
O       16.52378381       5.64306797      14.52550056
H       15.05676027       9.73389144      16.37719000
H       15.28535196       9.83732236      14.79163288
O       14.67198412       9.43593577      15.49733566
H       13.58551917       5.05092746      11.20983368
H       13.36848107       3.40901048      10.80394018
O       13.95589924       4.21055615      10.74714694
H        2.90247765       9.96691992       9.97290507
H        1.35759726       9.51088835       9.92009857
O        2.03588523      10.20524817       9.62296125
H       16.51391141       8.31209619       2.05226150
H       16.45114120       8.10927153       3.65753062
O       15.95446039       8.00287350       2.83584486
H       19.01145864       3.97205157      17.12062740
H       19.29243922       2.48582763      17.69634314
O       18.65283518       3.21469411      17.64538143
H       14.68214321      13.35286712      13.32388109
H       15.70006051      13.31488360      14.49542187
O       14.71989471      13.51972256      14.27442679
H        7.49348105      18.28382513       4.75282852
H        7.04331053      17.17817819       5.82184904
O        7.61497141      17.35530113       5.00431475
H        3.30717545       6.74444967       2.35087757
H        3.61805853       7.65953793       1.05814207
O        2.99026432       7.02493467       1.37050290
H        2.17358798       3.62280802       9.47004410
H        2.96346351       2.33112093       9.69403555
O        2.80733708       3.19164898      10.12170127
H        5.54081570      15.64547953      15.62244547
H        5.33674033      15.66798709      17.27089755
O        4.87465952      15.79974325      16.41541374
H       15.72152699      19.17501612      16.96693099
H       16.15299582      17.93942375      17.82952658
O       16.07178967      18.89482878      17.81811223
H        8.22838317      10.57847802      18.43758522
H        7.68394438      10.30078202       0.65476862
O        8.30487303      10.81647809       0.09551613
H        4.17341067       7.67354251      14.41768986
H        5.55803863       7.71825140      15.02191877
O        5.07837365       7.88180694      14.16727347
H       17.25371648      17.33921111       4.39080059
H       17.38927627      15.80790090       4.30731551
O       16.77486201      16.58275903       4.00698581
H       18.58318243      11.98390398      10.88960075
H       17.50225211      11.92298776       9.61167909
O       17.64953273      12.22621267      10.59925836
H       17.87181788      11.99439404       7.52928400
H       16.31974096      11.77594528       7.98538973
O       17.30926366      11.49948335       8.19359968
H       17.03315791      11.44366585      14.18821123
H       17.11643261      12.12502132      15.64428633
O       17.14145498      12.37036927      14.70122928
H       14.38903932      11.74819344      11.33344204
H       15.81041756      12.18567922      11.23788319
O       15.01021846      12.25573539      11.84824004
H        2.38237030      11.30123247      17.46814520
H        3.10675081      10.52793005      18.63278511
O        3.22973860      10.77218292      17.65538411
H        1.09989102      12.37677269      14.29268903
H       18.85098082      11.77513098      14.53199782
O        0.52675113      11.61528773      14.45475017
H        3.39861082       4.26183596       5.82899512
H        2.89452032       4.69000823       7.34773965
O        3.33532687       5.00199772       6.50787186
H       12.43188999       1.48920021       7.73018388
H       11.87940001       2.74896810       7.02171933
O       12.60503755       2.47746967       7.65911059
H        3.59278338       3.26745974       4.06001430
H        4.21116216       4.66195569       4.10445806
O        4.28739370       3.77903687       4.58298484
H       12.76073616       4.47092579       0.07647609
H       11.84433663       3.68543054       1.01432214
O       12.06715759       4.61234182       0.74898914
H       14.68869193       3.99018819       9.37093995
H       14.22406781       3.38143219       8.09763871
O       15.02050417       3.71843245       8.44956027
H        6.53411324      16.11033358       4.19926062
H        6.82061621      14.59338830       4.29615166
O        6.11035808      15.18637377       4.06965096
H       17.98070067       5.34452404       2.43929350
H       16.65355665       5.48321563       1.68235916
O       17.30616031       4.87043303       1.90922885
H        5.02371908       4.53656282       7.05786243
H        6.39553567       3.85744542       7.57547669
O        5.94940891       4.72888127       7.50788008
H        9.07805992      16.89827742      18.95377584
H        9.40143349      18.24176221      18.07817085
O        9.50518580      17.74262059      18.96134735
H       18.56430013      17.57666578      12.77471592
H        0.32302464      18.11767330      11.69234015
O        0.24522731      17.82503734      12.63636135
H        8.02897160       1.30856250      13.42768383
H        8.14687076       2.55720261      12.59965318
O        8.43978421       1.63940303      12.59845140
H       12.92452225      16.75827609       8.88418037
H       12.91572739      17.31266611       7.41325561
O       12.31262458      16.79921720       8.04611625
H       14.67998588      12.56411451      17.22721741
H       15.60449992      12.70478586      18.57362806
O       15.40383185      12.22751232      17.74237817
H       11.99345268       7.91704492      19.01998499
H       12.14559489       9.27307395       0.68007407
O       12.58199998       8.42460453       0.40152845
H        4.06045635      13.79524378       2.74645382
H       18.66601789      13.98810315       6.42063110
O        4.88844008      13.45563964       2.37637269
H        5.82541409       0.43342749      19.11622797
H        6.40473768       1.43024056      17.84327788
O        6.18660123       1.33785366      18.81788282
H        8.11102281       5.10239446      18.44105998
H        6.67627393       4.56405234      18.69791107
O        7.55516463       4.76669638      19.22352809
H       13.71736162      17.71627006      10.85666039
H       14.62912584      16.49346057      10.09546704
O       13.71584477      16.91522765      10.27368203
H       14.90899634       4.69188860       7.17803447
H       15.77835431       5.03278631       5.79491755
O       15.02471948       5.29781271       6.37157070
H        6.68812015       8.81841569      16.43350193
H        5.20590163       8.29241574      16.85102067
O        6.18277894       8.00350871      16.62644700
H        2.70539149      13.19689217       5.51326155
H        2.15154635      11.82666685       4.95008373
O        2.05343160      12.55271948       5.74429565
H       12.58301610       6.15033848       4.43587701
H       13.42361849       5.56185073       5.55272337
O       12.48730187       5.81416615       5.30643297
H        4.15354656      18.06397304      12.99956706
H        3.91234125      17.17501306      11.71480809
O        4.63838947      17.38368691      12.37463755
H        1.48554706       1.66845355       2.58420574
H        1.52868865       2.31303427       3.97605192
O        1.92249048       2.46371235       3.11274496
H       16.33247377       9.83601159      12.71758564
H       15.65929134      11.29585549      12.97859199
O       15.95176875      10.42370120      13.40912240
H        2.96358258      10.43733496       3.78069018
H        2.41837742      10.06440781       5.26813759
O        2.13123749      10.45728258       4.36192995
H        7.40424188       7.19456618       6.26623519
H        6.56908634       5.67233892       6.51299076
O        7.05465324       6.36609357       5.82579442
H       12.87328381      15.76204624      13.99202003
H       14.20574956      15.05376868      14.50718130
O       13.62234034      15.84167272      14.65694114
H       10.91715997      15.65881006      12.58236718
H       10.70628160      15.73201130      14.18232745
O       11.34379647      15.64484660      13.50319290
H       17.69796497       4.79340838      12.01897997
H       19.01750524       5.28772373      12.65703720
O       18.68233369       4.75376188      11.93465587
H        4.53558213       9.71853373       7.27942056
H        5.48234794      14.11233698       2.86534967
O        5.37247374       9.73112009       7.72588989
H        3.55247595      16.59146610      16.39296545
H        1.89771026      16.46617667      16.31405792
O        2.61063077      17.08068500      16.38639857
H        4.47826771      11.54301495      17.15690368
H        5.02628105      12.49810641      15.99534212
O        5.29910487      12.02652012      16.87040197
H       15.34388683       4.01253860      11.56814502
H       16.37358577       3.33108525      12.58526920
O       16.08845308       4.31517221      12.19518546
H       10.09132801       3.82301117       5.29719211
H       11.57333766       4.26962177       5.61838211
O       10.85541733       3.64235833       5.94582013
H        7.38457049      12.30088019      18.94205171
H        6.31969412      12.58360326      17.82334139
O        6.84088597      13.10829398      18.64541551
H       15.43704239      15.88683415       4.49373608
H       13.89440713      15.42708575       4.64099575
O       14.63509789      15.82206741       5.09451479
H        6.29087875       8.54722805       2.77553936
H        7.27995645       9.64755378       3.27858398
O        6.58306871       9.53322312       2.55862637
H       11.87730071      18.89573742      16.99074957
H       12.13560231       1.18464237      16.74174483
O       11.81184479       0.39338141      16.26676486
H        3.01915134       5.52973423       0.64664230
H        2.50487627       4.07166424       0.43405208
O        3.07580937       4.73917759       0.06165695
H        3.10854389      13.45567078      14.13091950
H        2.25061339      13.67055558      12.90491939
O        2.16263830      13.50514439      13.88477642
H       10.71139090       0.12437483       7.17619445
H       11.20143293      18.06558802       8.14978025
O       10.59900316      18.79406022       7.91188916
H       16.15510876      15.93348647       8.62898260
H       16.88720117      15.84688393       9.98786420
O       16.38124646      16.50490820       9.45992234
H       10.17435650      16.51444572      10.54965962
H       11.72358387      16.27539827      10.60083651
O       10.87167511      15.90949938      10.85395917
H        0.48294659      10.88544246      18.62442744
H        0.34630537       9.52415428       0.19556782
O        0.49952726      10.51345095       0.24359937
H        5.29538451       2.81213449      18.41513754
H        4.53058684       4.15750999      18.70775131
O        5.18554360       3.72663650      18.08829890
H       17.08230258      18.14134353       9.75653294
H       17.20866361       0.45055505       9.21783362
O       17.52762361      19.05310497       9.84021024
H       12.25329258      14.18175603      17.46142797
H       12.07829645      12.75109159      17.31880916
O       11.71839433      13.49999637      17.93382378
H        6.10185484      17.79254599       7.39521739
H        6.71550623      16.14735414       7.57897810
O        6.10490620      16.82816472       6.99182935
H        2.99614958       7.56658999      16.83999379
H        3.30745292       9.11496774      17.00156656
O        3.73142654       8.24109402      16.85678334
H       13.02847940       2.50186897      17.90126382
H       12.03553502       3.21585149      16.89388603
O       12.14435073       2.53837581      17.58842370
H       12.57033740      19.09417627      14.98100894
H       13.61344053      17.87279660      14.56129451
O       13.26135350      18.73511369      14.29455677
H        5.40078814      10.63055046       2.95088312
H        4.64254424      12.01614963       2.64123032
O        4.45357482      10.98246495       2.85488685
H       12.49823791      10.92024755       5.96407886
H       13.59371062      10.29088730       4.76419746
O       13.45523395      10.72271535       5.69354559
H        4.28520406       2.71506966      15.40334338
H        5.16118669       3.48689030      16.48477217
O        5.16864557       3.19509084      15.47259837
H        8.36541788       9.54229595       6.20750760
H        7.01568733       9.37787565       7.03985294
O        7.94417071       8.99381996       6.97082802
H        0.65909582       6.04953665       3.36097878
H       18.78968823       7.17049841       3.94261813
O       19.07317756       6.44342753       3.28010764
H       10.02952436       0.08373696      16.52469338
H        8.40327335       0.17771462      16.33647216
O        9.19450201      18.88771400      16.51105887
H       15.77008062      19.29535717       0.06931061
H       16.29900454       1.37628072       0.66969403
O       15.76553940       0.60764766       0.84867690
H        1.25442011      16.25389796      12.16920401
H        2.17154767      15.57404597      11.24520989
O        1.48649101      15.35503417      11.87902306
H        9.37705688      17.23827001      15.75176100
H        9.21278391      15.78591842      16.42424391
O        9.40053137      16.27575624      15.49977049
H        7.84146833      15.79863127      14.76564182
H        6.61300867      16.00725593      13.75626410
O        6.86113100      15.63985760      14.60216902
H       14.72260730       1.92856383      15.77870157
H       14.34862569       0.38620000      15.20787921
O       15.01960664       0.98031724      15.71701949
H        2.34750542       2.27775340      11.90467859
H        0.96958813       2.83023228      11.66114390
O        1.42351836       2.12767621      12.19438831
H        0.68224010       4.83327937       8.65849474
H        0.69895876       3.56514648       7.70015465
O        1.29813536       4.07854998       8.34789773
H       14.41267297       7.42828538       6.88204088
H       14.01572871       8.91614649       6.57107456
O       14.58109010       8.37448360       7.16590015
H       18.52419288       0.19216215       4.93613390
H       17.97610746      19.08804932       3.47159238
O       17.65400150      19.22500333       4.44440348
H        0.14317348      14.89408250       4.14896033
H       18.18830434      13.84823880       4.26544077
O       18.48026310      14.72902247       4.60789140
H       17.17784873      10.36716929      10.93863745
H       16.56863056       8.87051937      10.63702701
O       17.18335721       9.43909559      11.22069152
H        3.92688313      18.45948899      19.29453354
H        5.14563121      17.57116773       0.01482384
O        4.91370359      18.55102047       0.14157664
H       11.06181704       3.11636190      13.56926434
H       10.18373560       1.91041562      13.11288515
O       11.11460840       2.24372629      13.32874065
H       15.02419301       0.33073367       6.23762616
H       16.20864911       0.60898162       5.30236703
O       15.70812559       1.03461059       6.02337959
H       17.01098814       3.53731141       0.91316828
H       17.47184938       3.21026137      18.70957026
O       16.68252897       3.14948894       0.09276925
H       17.21793605       9.75049984       7.85067027
H       16.12234449       9.03514350       6.95027475
O       17.09651428       8.95448526       7.20166992
H        1.71999072      18.34034391      13.56514742
H        2.69724945      18.02664786      14.60805782
O        2.49068324      18.73625087      14.01483057
H        2.55741964      16.08351371       9.44282806
H        2.09376017      17.67469930       9.84461676
O        2.76232294      16.93050437       9.94415125
H        2.16097766      15.11472291       3.73578554
H        1.33090772      15.82431355       2.56791567
O        1.26628981      15.13846176       3.23694058
H       17.03211640      11.68413808       3.74177525
H       16.78878283      10.94322861       2.23629212
O       16.51606257      11.67673974       2.89311360
H        6.56341902       1.93362977      15.54058950
H        5.93988552       0.62117849      16.00399973
O        6.80698902       1.01935580      15.90660039
H       12.28546707       7.15273057       1.89681201
H       12.11433358       5.61807991       2.10989238
O       12.02202488       6.58796654       2.62483418
H        1.17705238       0.45981308      10.57709866
H       19.21108864      18.95671620      10.00807644
O        0.84026655      18.87433451      10.30962330
H       14.96770171      10.50625341      18.09538205
H       13.99464667       9.25313515      18.55241826
O       14.94554706       9.56143658      18.31715536
H        6.28882433       3.71588461      13.81384642
H        6.60412098       4.42371951      12.45750660
O        6.98202804       4.13427920      13.26395171
H       17.91666400       3.16340823       5.97913234
H       17.90282874       2.58035016       7.46045735
O       18.50982259       2.79337629       6.65082164
H       13.39429049      15.64862421      16.20657593
H       12.76678185      16.52647760      17.39517265
O       13.16094618      15.69091945      17.21732899
H       17.91718013       6.12502047       9.30575094
H       18.81791597       5.49343022      10.57539034
O       18.86180336       5.89290921       9.61777777
H       11.51418325      10.65653823       2.01052325
H       13.01606811      10.78956831       2.62876064
O       12.13604223      11.21973547       2.53987097
H       14.36446974       4.17453972      17.80799377
H       15.05693180       3.49257176      19.01529735
O       14.18257476       3.73985102      18.66834536
H       15.72430719      13.04322049       1.69650403
H       14.55927778      13.66647499       0.90010501
O       15.56733480      13.53159153       0.83805261
H       14.61859540      11.05344993       8.60011828
H       14.42590057      11.52291344       7.09543735
O       14.89714404      11.70753487       7.95666467
H       10.03159844      14.79418072      18.29841041
H        8.71991505      14.13519180      18.28994601
O        9.13583243      15.03948427      18.20553072
H        1.12080201       7.00843320      17.89755256
H        1.90647283       5.81849545      18.16126505
O        1.53909065       6.37530214      17.36268838
H        8.27335139       4.91739210       4.98641145
H        7.86840942       3.63528288       4.08147118
O        8.69340687       4.18337240       4.46812416
H        3.63745898       0.60401812       5.28189296
H        4.12962960       0.12708614       6.66087984
O        3.26710162       0.08115277       6.07797414
H        2.01892314      14.21484242       8.78020052
H        3.12418563      14.98705650       8.03213791
O        2.94146524      14.65307499       8.90178220
H        8.83368619       5.04318253       2.96742593
H        8.08419275       5.50688842       1.45990655
O        8.32255809       5.78621302       2.40793922
H       11.34142721       5.70876808      19.04239191
H       12.00333025       6.30053928      17.70294255
O       11.25406789       6.43272050      18.33497273
H        9.51582367      10.41523529       0.69551178
H       10.11749565       9.35944640       1.76778741
O       10.44278944      10.04054961       1.19105399
H       11.43014216       2.24463193       0.03363771
H       10.60930400       1.37644925       1.20435713
O       11.46767269       1.96242750       0.99309280
H       12.10427842       2.23225342      11.81057480
H       12.80479369       1.11096220      10.92834415
O       12.45393365       2.03764847      10.95410817
H        0.66146960       7.57468711       9.91711934
H       19.05700239       8.54459391      10.79195165
O        0.67501430       8.41534700      10.40765984
H        0.53873383      11.25549560      12.53257520
H        1.26309113      10.89089233      11.07039435
O        0.70804574      11.53443475      11.61083831
H       19.10408343       7.27025284       1.19892598
H        1.12038251       7.77693810       1.10392999
O        0.26605330       7.93479757       0.69683751
H       19.16363995      10.41344221       2.41493761
H        0.54118279      10.29061789       3.86589545
O       19.02246761      10.05846425       3.35527642
H       16.59065340       4.58304311       3.65208479
H        5.10201059       9.45012650       8.68468456
O       16.84447476       4.44346758       4.62133143
H        5.78590229       3.50369749       4.10694156
H        6.66124921       2.91844373       2.72764995
O        6.67012076       3.24433185       3.68634018
H        0.05065639      17.27279557      18.25094327
H       18.21057943      18.34428120      18.12792219
O       18.89565425      17.84930694      17.55429366
H        7.48277505       1.44266749       4.32129738
H        8.82434644       0.87300957       5.11615130
O        7.75610289       0.81603823       5.02693811
H       14.78279271      14.95595178       6.49079876
H       15.16229558      13.83738584       7.54716279
O       15.26536603      14.80274869       7.42022055
H        9.15392869      16.88537370       4.63111591
H        9.83475542      15.59623848       5.03684746
O        9.95413687      16.31082795       4.36176348
H       17.48819608      16.36090699      16.02126959
H       16.30659912      15.46223694      16.33485237
O       16.91108533      15.72569528      15.62380567
H        0.10729174       4.39411353      14.66566387
H        0.06132507       5.80935953      15.46270314
O       19.10147025       5.32027610      14.65010032
H        2.92946667      11.08518347       6.79667041
H        2.27642155      10.23918672       7.88239673
O        2.68778863      10.09013220       6.92167478
H       16.38596678       1.00922646      13.02602026
H       16.15168002       1.79990015      14.33745543
O       16.61123468       1.93366355      13.48834072
H       16.38171253      18.20720863      12.36773820
H       16.59444023      19.18305722      11.08481569
O       16.09164106      19.08802359      12.08403786
H       13.66375367      12.65593988      15.06642383
H       13.50073696      11.13677608      15.67614296
O       13.29259160      12.09387807      15.82236912
H        8.55829082       5.59120393      15.49218548
H        7.76583818       5.37768134      14.06126796
O        8.62316855       5.64493875      14.49545516
H       18.73621766       2.51856213      14.37013748
H        0.80101839       2.65492283      13.50208093
O        0.35379946       2.87575697      14.42321844
H        4.73861112      10.08887796      11.26527376
H        4.79494828       8.66962906      10.59123591
O        4.53531675       9.64839833      10.38615704
H       10.14123552       3.48649120       7.72660176
H       10.20749060       3.06927820       9.15677561
O        9.59997119       3.01360904       8.45235533
H        4.73619092      19.05610184      17.38204517
H        5.00968373      18.03932880      16.49171087
O        4.70849760      18.95862984      16.41672651
H       13.20791634      18.70326661      12.49205991
H       14.61017590      19.14638943      11.86369156
O       13.61916083      18.86519658      11.59620712
H       12.98967093       7.74588769      11.43678968
H       13.49970649       7.24313165      12.81105624