622
Lattice="19.302496080015516 0.0 0.0 0.0 19.302496080015516 0.0 0.0 0.0 19.302496080015516" Properties=species:S:1:pos:R:3 ipi_comment="Step:         999  Bead:       0 positions{ase}  cell{ase}" pbc="T T T"
H       11.89443917      12.72412567       2.28847620
H       10.56308641      12.27814674       1.96523127
O       11.08489226      13.15643201       2.11053554
H        6.60595372      17.23948629      13.23067573
H        6.93322878      18.86379489      13.53403383
O        6.33333172      18.13045731      13.69487705
H       14.05815544      -0.89277955      18.64346931
H       14.23847329      -1.53591525      20.05044112
O       14.53510810      -0.73629062      19.50423347
H        6.55999260      20.16839880      -0.60699811
H        7.97752713      19.87862450      -1.34923965
O        7.27363962      20.60612776      -1.10448767
H      -12.38210086      11.69802399      29.35841438
H      -12.17588984      12.52925534      30.76479085
O      -12.13188628      12.57024387      29.73611307
H       27.71978134       7.17468281      19.36454695
H       28.65118692       8.42970868      19.32616479
O       28.37129927       7.66582319      19.91269197
H       19.16821047      13.71998216       4.84325624
H       19.57643689      14.10194004       3.22121498
O       19.30006678      13.31809357       3.84335473
H        8.50813338      15.89181319      15.78835956
H        9.77443183      15.60401158      14.95819679
O        9.39964727      15.47238231      15.89605725
H       24.72305881     -14.34865626       8.94365354
H       25.89234740     -13.57982240       9.59925710
O       25.17956009     -13.55075981       8.84504939
H        3.14213137       6.22987152      16.00769224
H        2.01672714       5.16213855      16.49909951
O        2.35103867       6.12374392      16.63195780
H        8.41461887       5.87787379      10.81968322
H        7.43829603       4.67898427      10.71741421
O        7.98142054       5.31198416      10.23701666
H       14.15167802     -15.37375192      18.10605450
H       12.77223606     -16.11908708      17.84164766
O       13.61109481     -15.73038573      17.38699293
H       13.08895699      17.90594015       3.52290790
H       12.99969359      16.51002548       3.06615209
O       12.49109315      17.12875743       3.72002034
H        5.35114631      15.35587462      20.17286687
H        3.84142342      15.34083981      19.55552135
O        4.80452546      15.01276004      19.33803523
H       29.13838546      20.07812737      26.41474354
H       28.93450130      21.33217598      27.50637178
O       28.50466713      20.58903046      26.98914398
H        5.82713231       9.36104211      -9.76434438
H        6.88971258       9.83301714     -10.91369519
O        6.68207981       9.85056448      -9.92361348
H       15.71313505       5.41781763     -18.52996758
H       14.08565603       5.66270999     -18.68525801
O       14.78399377       4.99718244     -18.45817181
H       25.98386399      11.40682289       2.62959312
H       24.47852415      11.44009927       3.48219812
O       24.96447954      11.13204405       2.70007183
H        4.88987274      20.61804260       4.51328905
H        5.98455133      20.26924909       3.53817404
O        5.00040736      20.11677794       3.68112912
H       -8.23701637       4.00472468       8.10811960
H       -9.39449608       4.00197654       9.03885013
O       -8.95756729       3.34749403       8.50361184
H        8.65057864      11.41383577       2.20486044
H        8.24683088      11.70723458       3.69284820
O        7.94712502      11.92830483       2.68544896
H       21.48759153      16.68009342      15.22431195
H       21.35841929      17.98608679      16.13234495
O       21.61297379      17.04827578      16.14952601
H       18.66481470     -17.91784287      11.54949417
H       18.33876110     -17.34888523      13.06617874
O       18.64274077     -17.07480364      12.12971581
H       34.40427076      11.25308538      14.66248020
H       33.16756365      10.51681249      14.20060271
O       33.80356243      10.52503118      14.94247885
H       -8.68049993       5.13309563       0.38477870
H       -8.84323714       6.48345128       0.92720674
O       -8.26550331       5.74435810       0.95209837
H       18.81604876       3.22650945      21.08502990
H       18.56196448       4.62823775      20.22581564
O       19.22850511       3.88639844      20.38177406
H       -3.44727851       3.07049932      24.45938857
H       -4.54316090       4.12879164      24.03972560
O       -3.86169897       3.98450412      24.74710240
H        5.02181784      22.63399088      24.66814239
H        6.14919008      21.61321192      25.35434331
O        5.14732673      21.68271110      25.08500424
H       10.82910571      -5.08289348       3.43833885
H       11.48997045      -3.65866721       3.76344118
O       10.69089038      -4.18893871       3.86914600
H       -3.11100376      13.02655646      -5.14842004
H       -2.44346114      11.62389228      -5.48914671
O       -3.28644361      12.11304029      -5.57951602
H       12.30528508      24.28624606      23.47309685
H       12.34117792      25.86970840      23.85367334
O       11.87889479      25.04822647      24.01686663
H        3.24206342       7.13896807      14.17349162
H        4.40432753       6.16485706      14.23374287
O        4.15439320       7.01667804      14.61823750
H      -24.43214226      23.39096439      21.85718353
H      -25.30459927      22.55709539      22.87597466
O      -24.85593223      23.43502749      22.74970041
H       -1.69800465       7.64588642      27.11443139
H       -1.30609680       6.60417679      25.87285259
O       -1.02585201       7.01151171      26.80695637
H       15.51059394       9.32128563      -4.21632402
H       17.04761182       8.92639781      -4.61069747
O       16.32302774       8.66716839      -4.03248131
H       20.32193147      20.04530507      10.43618352
H       19.35847652      18.87185112      10.02625281
O       19.37238322      19.87663869      10.27177735
H        6.75973109      14.71956204      12.79382161
H        7.96826962      15.56847998      12.48445967
O        7.04559381      15.65947490      12.60423667
H        9.72741928       7.30281926       7.11912212
H        9.31284797       6.96480390       5.59086579
O        8.94042156       7.16501512       6.53949935
H        9.22005392      11.78428849      15.88110619
H       10.76985947      11.89120316      16.38100661
O       10.06106194      11.26924831      16.12700406
H       12.86416637       0.98690516       2.58783797
H       13.88420267      -0.01034563       1.78500475
O       13.71359085       0.31012784       2.78702753
H       -0.19978288      10.53871387      13.81075509
H       -1.30033817      10.24457644      12.76892437
O       -1.15559808      10.68642938      13.68806396
H       16.67987446      -4.52524323      15.53975340
H       16.90846615      -4.42181231      13.95419628
O       16.29509831      -4.82319890      14.65989906
H       15.20863336      10.09428887      -8.93009900
H       14.99159526       8.45237189      -9.33599250
O       15.57901343       9.25391756      -9.39278574
H       23.82808792      -4.29221475       9.13546847
H       22.28320753      -4.74824632       9.08266197
O       22.96149550      -4.05388650       8.78552465
H       -1.16547048      13.35545760       1.21482490
H       -1.22824069      13.15263294       2.82009402
O       -1.72492150      13.04623491       1.99840826
H        1.33207675       9.01541298      -3.01930528
H        1.61305733       7.52918904      -2.44358954
O        0.97345329       8.25805552      -2.49455125
H       16.30525740      -0.90626755      -6.81605159
H       17.32317470      -0.94425107      -5.64451081
O       16.34300890      -0.73941211      -5.86550589
H        9.11659524       4.02469046       3.91539192
H        8.66642472       2.91904352       4.98441244
O        9.23808560       3.09616646       4.16687815
H        4.93028964      11.78781108      20.81593705
H        5.24117272      12.70289934      19.52320155
O        4.61337851      12.06829608      19.83556238
H        3.79670217       8.66616943       8.63260750
H        4.58657770       7.37448234       8.85659895
O        4.43045127       8.23501039       9.28426467
H        7.16392989       1.38634486      14.78500887
H        6.95985452       1.40885242      16.43346095
O        6.49777371       1.54060858      15.57797714
H       17.34464118       4.91588145      16.12949439
H       17.77611001       3.68028908      16.99208998
O       17.69490386       4.63569411      16.98067563
H       -9.45099872      15.62183943      -1.70234746
H       -9.99543751      15.34414343      -0.18266798
O       -9.37450886      15.85983950      -0.74192047
H        5.79652486      12.71690392      13.58025326
H        7.18115282      12.76161281      14.18448217
O        6.70148784      12.92516835      13.32983687
H       -0.42566541       3.08007644       3.55336399
H       -0.29010562       1.54876623       3.46987891
O       -0.90451988       2.32362436       3.16954921
H       20.20629662      17.02726539      10.05216415
H       19.12536630      16.96634917       8.77424249
O       19.27264692      17.26957408       9.76182176
H       19.49493207      17.03775545       6.69184740
H       17.94285515      16.81930669       7.14795313
O       18.93237785      16.54284476       7.35616308
H       18.65627210      16.48702726      -5.95172145
H       18.73954680      17.16838273      -4.49564635
O       18.76456917      17.41373068      -5.43870340
H       -3.29034257      16.79155485      -8.80649064
H       -1.86896433      17.22904063      -8.90204949
O       -2.66916343      17.29909680      -8.29169264
H        4.00548449      -2.95790220      16.63070860
H        4.72986500      -3.73120462      17.79534851
O        4.85285279      -3.48695175      16.81794751
H        2.72300521      17.42013410      13.45525243
H        1.17159893      16.81849239      13.69456122
O        2.14986532      16.65864914      13.61731357
H        5.02172501       9.30519737       4.99155852
H        4.51763451       9.73336964       6.51030305
O        4.95844106      10.04535913       5.67043526
H       14.05500418      25.83505770      26.19524336
H       13.50251420      27.09482559      25.48677881
O       14.22815174      26.82332716      26.12417007
H       24.51839365       8.31082115       3.22257770
H       25.13677243       9.70531710       3.26702146
O       25.21300397       8.82239828       3.74554824
H       -4.91864573       9.51428720      -0.76096051
H       -5.83504526       8.72879195       0.17688554
O       -5.61222430       9.65570323      -0.08844746
H       16.31180612       9.03354960      27.83599943
H       15.84718200       8.42479360      26.56269819
O       16.64361836       8.76179386      26.91461975
H        8.15722743       1.85119891       3.36182402
H        8.44373040       0.33425363       3.45871506
O        7.73347227       0.92723910       3.23221436
H       38.90631094      10.38788545       1.60185690
H       37.57916692      10.52657704       0.84492256
O       38.23177058       9.91379444       1.07179225
H        6.64683327      28.88242031       6.22042583
H        8.01864986      28.20330291       6.73804009
O        7.57252310      29.07473876       6.67044348
H       -8.60132197       2.63914275      -1.18615684
H       -8.27794840       3.98262754      -2.06176183
O       -8.17419609       3.48348592      -1.17858533
H        0.88491824       3.31753111      -7.36521676
H        1.94613883       3.85853863      -8.44759253
O        1.86834150       3.56590267      -7.50357133
H        9.65208579      25.65441999      12.59024723
H        9.76998495      26.90306010      11.76221658
O       10.06289840      25.98526052      11.76101480
H       14.54763644     -16.80335466       8.04674377
H       14.53884158     -16.24896464       6.57581901
O       13.93573877     -16.76241355       7.20867965
H       -2.99939601      17.60747592      -2.91271527
H       -2.07488197      17.74814727      -1.56630462
O       -2.27555004      17.27087373      -2.39755451
H       13.61656687      -6.34208975      18.18254839
H       13.76870908      -4.98606072      19.14513355
O       14.20511417      -5.83453014      18.86658793
H        5.68357054      -0.46389089       1.90901722
H        0.98663600      -0.27103152       5.58319450
O        6.51155427      -0.80349503       1.53893609
H        7.44852828       5.47678890      18.27879137
H        8.02785187       6.47360197      17.00584128
O        7.80971542       6.38121507      17.98044622
H       29.03663308      -9.15674021      17.60362338
H       27.60188420      -9.69508233      17.86047447
O       28.48077490      -9.49243829      18.38609149
H       -3.96202027       3.45713539      10.01922379
H       -3.05025605       2.23432590       9.25803044
O       -3.96353712       2.65609298       9.43624543
H       -2.77038555      -9.56724607       6.34059787
H       -1.90102758      -9.22634836       4.95748095
O       -2.65466241      -8.96132196       5.53413410
H       27.61373042      -5.44071898      15.59606533
H       26.13151190      -5.96671893      16.01358407
O       27.10838921      -6.25562596      15.78901040
H      -14.97399040      -1.06224250       4.67582495
H      -15.52783554      -2.43246782       4.11264713
O      -15.62595029      -1.70641519       4.90685905
H       -5.09636579      11.19369989      22.90093649
H       -4.25576340      10.60521214      24.01778285
O       -5.19208002      10.85752756      23.77149245
H        5.77666075       3.80483837      12.16213046
H        5.53545544       2.91587839      10.87737149
O        6.26150366       3.12455224      11.53720095
H        3.10866125     -12.59068112      21.04926522
H        3.15180284     -11.94610040      22.44111140
O        3.54560467     -11.79542232      21.57780444
H       -1.34690812      14.87937300      11.88014904
H       -2.02009055      16.33921690      12.14115539
O       -1.72761314      15.46706261      12.57168580
H        4.58669677      -3.82179971      22.24574966
H        4.04149161      -4.19472686      23.73319707
O        3.75435168      -3.80185209      22.82698943
H        9.02735607      31.54042367       5.42879859
H        8.19220053      30.01819641       5.67555416
O        8.67776743      30.71195106       4.98835782
H       14.49639800       1.50291157      13.15458343
H       15.82886375       0.79463401      13.66974470
O       15.24545453       1.58253805      13.81950454
H       -6.76222192       1.39967539      11.74493058
H       -6.97310029       1.47287663      13.34489085
O       -6.33558542       1.38571193      12.66575630
H        0.01858308       9.83676979      30.48403945
H        1.33812335      10.33108514      31.12209668
O        1.00295180       9.79712329      30.39971535
H        6.15869632      -4.54060094       6.44198396
H        7.10546213      -0.14679769       2.02791307
O        6.99558793      -4.52801458       6.88845329
H       24.47808622       2.33233143      15.55552885
H       22.82332053       2.20704200      15.47662132
O       23.53624104       2.82155033      15.54896197
H        6.10138190      -2.71611972      -2.98302900
H        6.64939524      -1.76102826      -4.14459056
O        6.92221906      -2.23261455      -3.26953071
H       16.96700102       9.05590001      10.73070842
H       17.99669996       8.37444666      11.74783260
O       17.71156727       9.35853362      11.35774886
H       11.71444220       8.86637258      23.76225159
H       13.19645185       9.31298318      24.08344159
O       12.47853152       8.68571974      24.41087961
H        9.00768468      17.34424160      -1.19788097
H        7.94280831      17.62696467      -2.31659129
O        8.46400016      18.15165539      -1.49451717
H       -2.24233950      20.93019556       3.65629948
H       -3.78497476      20.47044716       3.80355915
O       -3.04428400      20.86542882       4.25707819
H        7.91399294      -5.71190662      21.24059884
H        8.90307064      -4.61158089      21.74364346
O        8.20618290      -4.72591155      21.02368585
H       -5.80208118       4.63660275      16.15331297
H       -5.54377958       6.22800378      15.90430823
O       -5.86753710       5.43674282      15.42932826
H        4.64226553      29.87559172      19.11170178
H        4.12799046      28.41752173      18.89911156
O        4.69892356      29.08503508      18.52671643
H        4.73165808      18.49903219      13.29348290
H        3.87372758      18.71391699      12.06748279
O        3.78575249      18.54850580      13.04733982
H       12.33450509       5.16773624      25.64125393
H       12.82454712       3.80645335      26.61483973
O       12.22211735       4.53492555      26.37694864
H       17.77822295      20.97684788       7.79154600
H       18.51031536      20.89024534       9.15042760
O       18.00436065      21.54826961       8.62248574
H       11.79747069      21.55780713       9.71222302
H       13.34669806      21.31875968       9.76339991
O       12.49478930      20.95286079      10.01652257
H       21.40855686      15.92880387      -1.51550524
H       21.27191564      14.56751569      -0.64186878
O       21.42513753      15.55681236      -0.59383723
H        6.91849870      27.15799198      17.57770094
H        6.15370103      28.50336748      17.87031471
O        6.80865779      28.07249399      17.25086230
H       18.70541677      23.18470494       8.91909634
H       18.83177780      24.79641254       8.38039702
O       19.15073780      24.09646638       9.00277364
H       13.87640677      -0.07737864      16.62399137
H       13.70141064      -1.50804308      16.48137256
O       13.34150852      -0.75913830      17.09638718
H        7.72496903      22.83590740     -12.74471529
H        8.33862042      21.19071555     -12.56095458
O        7.72802039      21.87152613     -13.14810333
H       23.92175985      31.91244748      16.00255719
H       24.23306319      33.46082523      16.16412996
O       24.65703681      32.58695151      16.01934674
H       14.65159359       7.54523038      17.06382722
H       13.65864921       8.25921290      16.05644943
O       13.76746492       7.58173722      16.75098710
H       14.19345159     -14.46745448      14.14357234
H       15.23655472     -15.68883415      13.72385791
O       14.88446769     -14.82651706      13.45712017
H      -12.27859375      -3.62858421       2.11344652
H      -13.03683765      -2.24298504       1.80379372
O      -13.22580707      -3.27666972       2.01745025
H       14.12135210      15.96360896       5.12664226
H       15.21682481      15.33424871       3.92676086
O       15.07834814      15.76607676       4.85610899
H       25.21081433       7.75843107      -4.73658930
H       26.08679696       8.53025171      -3.65516051
O       26.09425584       8.23845225      -4.66733431
H       29.29102815      14.58565736       5.37007100
H       27.94129760      14.42123706       6.20241634
O       28.86978098      14.03718137       6.13339142
H        2.28221001      -8.20959802      21.82603826
H        1.11030634      -7.08863626      22.40767761
O        1.39379567      -7.81570714      21.74516712
H       -7.64985753     -14.17539771      -3.61523930
H       -9.27610854     -14.08142005      -3.80346052
O       -8.48487988     -14.67391675      -3.62887381
H       -1.90930127       5.03622250     -20.07062207
H       -1.38037735       6.41964213     -19.47023865
O       -1.91384249       5.65100907     -19.29125578
H       22.18003038      40.59975545      -7.97072867
H       23.09715794      39.91990346      -8.89472279
O       22.41210128      39.70089166      -8.26090962
H       30.30266715       2.97913534      14.91432440
H       30.13839418       1.52678375      15.58680731
O       30.32614164       2.01662157      14.66233389
H        9.46458252      20.84199268      13.92820522
H        8.23612286      21.05061734      12.91882750
O        8.48424519      20.68321901      13.76473242
H       -2.95677459      26.27442132      14.94126497
H       -3.33075620      24.73205749      14.37044261
O       -2.65977525      25.32617473      14.87958289
H       23.27311569       7.32111481      11.06724199
H       21.89519840       7.87359369      10.82370730
O       22.34912863       7.17103762      11.35695171
H        2.30535429      29.17913686     -11.48143794
H        2.32207295      27.91100397     -12.43977803
O        2.92124955      28.42440747     -11.79203495
H       16.03578716      12.47164679      25.34710036
H       15.63884290      13.95950790      25.03613404
O       16.20420429      13.41784501      25.63095963
H        0.84481099       5.23552356       4.09869730
H        0.29672557       4.82891465       2.63415578
O       -0.02538039       4.96586866       3.60696688
H        1.76628767      19.93744391      22.61401981
H        0.50892245      18.89160021      22.73050025
O        0.80088121      19.77238388      23.07295088
H       -0.50153316      15.41053070      10.10120085
H       -1.11075133      13.91388078       9.79959041
O       -0.49602468      14.48245700      10.38325492
H       24.85249340       4.20035432      -0.84539914
H       26.07124148       3.31203306      -0.82261276
O       25.83931386       4.29188580      -0.69585996
H       12.68493123       8.15972331      12.73182774
H       11.80684979       6.95377703      12.27544855
O       12.73772259       7.28708770      12.49130405
H       -2.65518888       5.37409508       5.40018956
H       -1.47073278       5.65234303       4.46493043
O       -1.97125630       6.07797200       5.18594299
H       -0.66839375       8.58067282       0.07573168
H       -0.20753251       8.25362278      -1.43036242
O       -0.99685292       8.19285035      -0.74466735
H       -0.46144584      14.79386125     -12.28926241
H       -1.55703740      14.07850491     -13.18965793
O       -0.58286761      13.99784667     -12.93826276
H       22.64560099       4.08120924      12.72771082
H       23.62285972       3.76751319      13.77062122
O       23.41629351       4.47711620      13.17739397
H       23.48302991      21.12687512       8.60539146
H       23.01937044      22.71806071       9.00718016
O       23.68793321      21.97386578       9.10671465
H        3.78409185      20.15808432      22.20084502
H        2.95402191      20.86767496      21.03297515
O        2.88940400      20.18182317      21.70200006
H       -0.64726549      16.72749949      22.20683473
H       -0.89059906      15.98659002      20.70135160
O       -1.16331932      16.72010115      21.35817308
H        8.18653321       6.97699118      14.70315290
H        7.56299971       5.66453990      15.16656313
O        8.43010321       6.06271721      15.06916379
H       13.90858126      12.19609198       1.05937541
H       13.73744777      10.66144132       1.27245578
O       13.64513907      11.63132795       1.78739758
H       22.10266265       5.50317449       9.73966206
H       20.83420283       4.69758153       9.17063984
O       21.76587682       4.61519984       9.47218670
H       16.59081590      15.54961482      -2.04455063
H       15.61776086      14.29649656      -1.58751442
O       16.56866125      14.60479799      -1.82277732
H        7.91193852       8.75924602      12.97640982
H        8.22723517       9.46708092      11.62007000
O        8.60514223       9.17764061      12.42651511
H        0.23728211      27.50926572       5.14169574
H        0.22344685      26.92620765       6.62302075
O        0.83044070      27.13923378       5.81338504
H       15.01740468      20.69198562      -3.93335675
H       14.38989604      21.56983901      -2.74476003
O       14.78406037      20.73428086      -2.92260369
H        0.23779824      11.16838188       8.46831434
H        1.13853408      10.53679163       9.73795374
O        1.18242147      10.93627062       8.78034117
H       13.13729744      -3.60259644       1.17308665
H       14.63918230      -3.46956636       1.79132404
O       13.75915642      -3.03939920       1.70243437
H       15.98758393     -10.08459495      -2.33193891
H       16.68004599     -10.76656291      -1.12463533
O       15.80568895     -10.51928365      -1.47158732
H       -1.95507470      18.08658190      20.16156351
H       -3.12010411      18.70983640      19.36516449
O       -2.11204709      18.57495294      19.30311209
H       16.24170959      16.09681134       7.76268168
H       16.04901476      16.56627485       6.25800075
O       16.52025823      16.75089628       7.11922807
H       11.65471263      19.83754213      -1.84152227
H       10.34302924      19.17855321      -1.84998667
O       10.75894662      20.08284568      -1.93440196
H       22.04641228      31.35429069      -2.24238012
H       22.83208310      30.16435294      -1.97866763
O       22.46470092      30.72115963      -2.77724430
H       -9.40603050       9.96075351      23.45147093
H       -9.81097247       8.67864429      22.54653066
O       -8.98597502       9.22673381      22.93318364
H        5.26057317       5.64737953     -14.85803972
H        5.75274379       5.17044755     -13.47905284
O        4.89021581       5.12451418     -14.06195854
H       22.94453341      -0.04429225       7.94276392
H       24.04979590       0.72792183       7.19470131
O       23.86707551       0.39394032       8.06434560
H       10.45680038      -9.21595214      21.43248541
H        9.70730694      -8.75224625      19.92496603
O        9.94567228      -8.47292165      20.87299870
H       12.96454140      10.75212949      18.20495531
H       13.62644444      11.34390069      16.86550595
O       12.87718208      11.47608191      17.49753613
H       11.13893786      15.45859670      -0.14192482
H       11.74060984      14.40280781       0.93035081
O       12.06590363      15.08391102       0.35361739
H       32.35575243     -12.01450274      18.49869719
H       31.53491427     -12.88268542      19.66941661
O       32.39328296     -12.29670717      19.45815228
H       13.72739261       7.27561483      10.97313820
H       14.42790788       6.15432361      10.09090755
O       14.07704784       7.08100988      10.11667157
H        2.28458379      12.61804852      28.38217882
H        1.37762050      13.58795532      29.25701113
O        2.29812849      13.45870841      28.87271932
H        2.16184802      16.29885701      30.99763468
H        2.88620532      15.93425374      29.53545383
O        2.33115993      16.57779616      30.07589779
H        1.42470154      31.61611033       0.36148938
H        2.74349670      32.12279559       0.26649339
O        1.88916749      32.28065506      -0.14059909
H        1.48425806      15.45680362       1.57750101
H        2.16429698      15.33397930       3.02845885
O        1.34308572      15.10182566       2.51783982
H       -1.08872849       9.62640452       2.81464819
H        6.72512478      14.49348791       7.84724796
O       -0.83490713       9.48682899       3.78389483
H       26.71151256      27.84955498      22.57200104
H       27.58685948      27.26430122      21.19270943
O       27.59573103      27.59018934      22.15139966
H       20.97626666      22.31615698      17.41350667
H       19.83369362      23.38764261      17.29048559
O       20.51876844      22.89266835      16.71685706
H        9.10588924       6.48602890       3.48386078
H       10.44746063       5.91637098       4.27871470
O        9.37921708       5.85939964       4.18950151
H       -2.89658918       0.69681711      24.95585824
H       -2.51708631      -0.42174883      26.01222227
O       -2.41401586       0.54361402      25.88528003
H       10.77704288      21.92873511       3.79367931
H       11.45786961      20.63959989       4.19941086
O       11.57725106      21.35418936       3.52432688
H       19.11131027      21.40426840      15.18383299
H       17.92971331      20.50559835      15.49741577
O       18.53419952      20.76905669      14.78636907
H        1.73040593      28.73997102      -5.47426881
H        1.68443926      30.15521702      -4.67722954
O        1.42208836      29.66613359      -5.48983236
H        4.55258086      16.12854488       5.95923381
H        3.89953574      15.28254813       7.04496013
O        4.31090282      15.13349361       6.08423818
H       18.00908097      25.35508395      12.18858366
H       17.77479421      26.14575764      13.50001883
O       18.23434887      26.27952104      12.65090412
H       -1.29766936       3.94807396      -7.77219448
H       -1.08494166       4.92392255      -9.05511699
O       -1.58774083       4.82888892      -8.05589482
H       15.28686786      17.69930129      14.22898723
H       15.12385115      16.18013749      14.83870636
O       14.91570579      17.13723948      14.98493252
H       10.18140501      10.63456534      14.65474888
H        9.38895237      10.42104275      13.22383136
O       10.24628274      10.68830016      13.65801856
H        1.05683577      26.86441962      13.53270088
H        2.42413258      27.00078032      12.66464433
O        1.97691365      27.22161446      13.58578184
H        6.36172531      15.13223937      29.73033324
H        6.41806247      13.71299047      29.05629539
O        6.15843094      14.69175974      28.85121652
H       11.76434971      27.83234869      26.19166124
H       11.83060479      27.41513569      27.62183509
O       11.22308538      27.35946653      26.91741481
H        6.35930511      24.09946325      16.54460857
H        6.63279792      23.08269021      15.65427427
O        6.33161179      24.00199125      15.57928991
H       14.83103053       4.44413194      30.95711939
H       16.23329009       4.88725476      30.32875104
O       15.24227502       4.60606191      30.06126660
H       -4.68971096      32.09174518      29.90184916
H       -4.17967540      31.58898914      31.27611572