176
Lattice="8.131986283995166 0.0 0.0 0.0 11.50036885063394 0.0 0.0 0.0 52.725920576593055" Properties=species:S:1:pos:R:3:forces:R:3 energy=-228701.7485004645 pbc="T T T"
Ga -0.00000002299516623606556288967446 11.47485597163393755693050479749218 3.02712070000000021963160179439001 0.00000000000000000000000000000000 0.00251736710521501937803945381233 -0.00141564940060401344736062956287
Ga 4.06599313099999903897696640342474 11.47485597163393755693050479749218 3.02712070000000021963160179439001 0.00000000000000000000000000000000 0.00251736710521501937803945381233 -0.00141564940060401344736062956287
Ga 6.09898969600000118163052320596762 2.90169800199999938783435027289670 0.90218788900000002062284920612001 0.00000000000000000000000000000000 0.00076001809447611042014347759732 -0.00073302151128260863155450266504
Ga 2.03299656499999992220750755222980 2.90169800199999938783435027289670 0.90218788900000002062284920612001 -0.00000000000000000000000000000000 0.00076001809447611042014347759732 -0.00073302151128260863155450266504
Ga 4.06599313099999903897696640342474 1.71495810600000009316090654465370 1.20924083100000001600449195393594 0.00000000000000000000000000000000 -0.00084203628532113065398301277042 0.00148172675184906114075056304813
As 2.03299656499999992220750755222980 4.27052906599999992920402291929349 2.98987715300000100882016340619884 0.00000000000000000000000000000000 -0.00097650498065638281341288573500 -0.00309766508871724566970273784250
As 6.09898969600000118163052320596762 4.27052906599999992920402291929349 2.98987715300000100882016340619884 -0.00000000000000000000000000000000 -0.00097650498065638281341288573500 -0.00309766508871724566970273784250
Ga -0.00000002299516623606556288967446 1.71495810600000009316090654465370 1.20924083100000001600449195393594 0.00000000000000000000000000000000 -0.00084203628532113065398301277042 0.00148172675184906114075056304813
Ga 4.06599313099999903897696640342474 11.48392767963393978902786329854280 7.11805615599999974563161231344566 0.00000000000000000000000000000000 -0.00008536062495469169837929851452 -0.00038026615755418392708989139273
Ga 0.00000000000000000000000000000000 11.48392767963393978902786329854280 7.11805615599999974563161231344566 0.00000000000000000000000000000000 -0.00008536062495469169837929851452 -0.00038026615755418392708989139273
Ga 2.03299656499999992220750755222980 2.84499825000000017283241504628677 5.07533045499999957428371999412775 -0.00000000000000000000000000000000 -0.00058955395488285555066765297738 -0.00325424527123955708435287803582
Ga 6.09898969600000118163052320596762 2.84499825000000017283241504628677 5.07533045499999957428371999412775 0.00000000000000000000000000000000 -0.00058955395488285555066765297738 -0.00325424527123955708435287803582
As 0.00000000000000000000000000000000 1.41410941700000014620286492572632 5.07345665899999964665312290890142 0.00000000000000000000000000000000 0.00366279356356788519250011759709 0.00098318984887572620327833572418
As 6.09898969600000118163052320596762 4.30019083899999898790156294126064 7.09981227599999975552691466873512 -0.00000000000000000000000000000000 0.00005553582828377532363325203013 -0.00277370609039522290559243167252
As 2.03299656499999992220750755222980 4.30019083899999898790156294126064 7.09981227599999975552691466873512 0.00000000000000000000000000000000 0.00005553582828377532363325203013 -0.00277370609039522290559243167252
As 4.06599313099999903897696640342474 1.41410941700000014620286492572632 5.07345665899999964665312290890142 0.00000000000000000000000000000000 0.00366279356356788519250011759709 0.00098318984887572620327833572418
Ga 0.00000000000000000000000000000000 11.48563080163394012345179362455383 11.17774410200000012594045983860269 0.00000000000000000000000000000000 0.00294597000220137798104369508678 0.00051319219099266459756247815704
Ga 4.06599313099999903897696640342474 11.48563080163394012345179362455383 11.17774410200000012594045983860269 0.00000000000000000000000000000000 0.00294597000220137798104369508678 0.00051319219099266459756247815704
Ga 6.09898969600000118163052320596762 2.85950981699999973173476064403076 9.13808920600000007539165380876511 -0.00000000000000000000000000000000 -0.00153494858728767894634481550042 -0.00186636378477743054664361732620
Ga 2.03299656499999992220750755222980 2.85950981699999973173476064403076 9.13808920600000007539165380876511 0.00000000000000000000000000000000 -0.00153494858728767894634481550042 -0.00186636378477743054664361732620
As 4.06599313099999903897696640342474 1.42485397399999991208119354269002 9.14378128699999948025833873543888 0.00000000000000000000000000000000 0.00179514422720981198233758391325 -0.00352498243412296095866675926800
As 2.03299656499999992220750755222980 4.29979438700000038409143598983064 11.16913144499999965830738801741973 0.00000000000000000000000000000000 -0.00119042076367536966280402666030 -0.00333394946923941913607958298371
As 6.09898969600000118163052320596762 4.29979438700000038409143598983064 11.16913144499999965830738801741973 -0.00000000000000000000000000000000 -0.00119042076367536966280402666030 -0.00333394946923941913607958298371
As 0.00000000000000000000000000000000 1.42485397399999991208119354269002 9.14378128699999948025833873543888 0.00000000000000000000000000000000 0.00179514422720981198233758391325 -0.00352498243412296095866675926800
Ga 4.06599313099999903897696640342474 11.49082024963393955374613142339513 15.24309084000000069636371335946023 0.00000000000000000000000000000000 -0.00191598607579024859080829568114 -0.00146218636782328818835008377164
Ga 0.00000000000000000000000000000000 11.49082024963393955374613142339513 15.24309084000000069636371335946023 0.00000000000000000000000000000000 -0.00191598607579024859080829568114 -0.00146218636782328818835008377164
Ga 2.03299656499999992220750755222980 2.86202949900000014338274922920391 13.20591987000000244734110310673714 -0.00000000000000000000000000000000 0.00367693463095495774381471498771 0.00179385867562916888513779856140
Ga 6.09898969600000118163052320596762 2.86202949900000014338274922920391 13.20591987000000244734110310673714 0.00000000000000000000000000000000 0.00367693463095495774381471498771 0.00179385867562916888513779856140
As -0.00000002299516623606556288967446 1.42540949399999994362531197111821 13.20583167100000387961244996404275 0.00000000000000000000000000000000 0.00298505077025292388584465363977 0.00318482548588483764182011093169
As 6.09898969600000118163052320596762 4.30310232300000006233631211216561 15.23622185800000217170691030332819 -0.00000000000000000000000000000000 0.00216152642769305153302994426667 -0.00040160631379285676020515771789
As 2.03299656499999992220750755222980 4.30310232300000006233631211216561 15.23622185800000217170691030332819 0.00000000000000000000000000000000 0.00216152642769305153302994426667 -0.00040160631379285676020515771789
As 4.06599313099999903897696640342474 1.42540949399999994362531197111821 13.20583167100000387961244996404275 0.00000000000000000000000000000000 0.00298505077025292388584465363977 0.00318482548588483764182011093169
Ga 0.00000000000000000000000000000000 11.49648332863394095681996986968443 19.30662792900000468421239929739386 0.00000000000000000000000000000000 -0.00217412483318335340853888482116 -0.00076824562459222524475610516248
Ga 4.06599313099999903897696640342474 11.49648332863394095681996986968443 19.30662792900000468421239929739386 0.00000000000000000000000000000000 -0.00217412483318335340853888482116 -0.00076824562459222524475610516248
Ga 6.09898969600000118163052320596762 2.86892368899999938847145131148864 17.27385200599999848236620891839266 0.00000000000000000000000000000000 -0.00184142408411295740999769066093 -0.00264875047675672877639518887349
Ga 2.03299656499999992220750755222980 2.86892368899999938847145131148864 17.27385200599999848236620891839266 -0.00000000000000000000000000000000 -0.00184142408411295740999769066093 -0.00264875047675672877639518887349
As 4.06599313099999903897696640342474 1.43192063399999991446520652971230 17.27150123399999870343890506774187 0.00000000000000000000000000000000 -0.00211190413668023478990787289433 -0.00286986534862731590758699873334
As 2.03299656499999992220750755222980 4.30929717099999987084402164327912 19.30276140200000156710302690044045 0.00000000000000000000000000000000 -0.00315294380668489299460177655021 -0.00028127868584467688103933902255
As 6.09898969600000118163052320596762 4.30929717099999987084402164327912 19.30276140200000156710302690044045 -0.00000000000000000000000000000000 -0.00315294380668489299460177655021 -0.00028127868584467688103933902255
As 0.00000000000000000000000000000000 1.43192063399999991446520652971230 17.27150123399999870343890506774187 0.00000000000000000000000000000000 -0.00211190413668023478990787289433 -0.00286986534862731590758699873334
Ga 4.06599313099999903897696640342474 11.49650931863394021092972252517939 23.37036340199999884248427406419069 0.00000000000000000000000000000000 -0.00211190413668023478990787289433 0.00120944692706888463906711450591
Ga 0.00000000000000000000000000000000 11.49650931863394021092972252517939 23.37036340199999884248427406419069 0.00000000000000000000000000000000 -0.00211190413668023478990787289433 0.00120944692706888463906711450591
Ga 2.03299656499999992220750755222980 2.87194944999999979273752614972182 21.33738330000000260611159319523722 0.00000000000000000000000000000000 -0.00251428178142147585802379516906 0.00226077100971868718767843198236
Ga 6.09898969600000118163052320596762 2.87194944999999979273752614972182 21.33738330000000260611159319523722 -0.00000000000000000000000000000000 -0.00251428178142147585802379516906 0.00226077100971868718767843198236
As 0.00000000000000000000000000000000 1.43470166600000004208936843497213 21.33610840900000482633913634344935 0.00000000000000000000000000000000 -0.00269425900271148908299290170021 0.00071862333357940752585207855319
As 6.09898969600000118163052320596762 4.30882059099999992213270161300898 23.36820872199999854501584195531905 0.00000000000000000000000000000000 -0.00132308968679772129099780908490 0.00051550618383782169547313589675
As 2.03299656499999992220750755222980 4.30882059099999992213270161300898 23.36820872199999854501584195531905 -0.00000000000000000000000000000000 -0.00132308968679772129099780908490 0.00051550618383782169547313589675
As 4.06599313099999903897696640342474 1.43470166600000004208936843497213 21.33610840900000482633913634344935 0.00000000000000000000000000000000 -0.00269425900271148908299290170021 0.00071862333357940752585207855319
Ga -0.00000002299516623606556288967446 11.49087056463394063143823586869985 27.43513543399999932148602965753525 0.00000000000000000000000000000000 0.00179488711689368353636997444056 0.00243714868658290000069666092486
Ga 4.06599313099999903897696640342474 11.49087056463394063143823586869985 27.43513543399999932148602965753525 0.00000000000000000000000000000000 0.00179488711689368353636997444056 0.00243714868658290000069666092486
Ga 6.09898969600000118163052320596762 2.86870126200000008509505278198048 25.40162823800000069240923039615154 -0.00000000000000000000000000000000 -0.00077338783091479709145416032712 0.00122358799445595675670084290232
Ga 2.03299656499999992220750755222980 2.86870126200000008509505278198048 25.40162823800000069240923039615154 0.00000000000000000000000000000000 -0.00077338783091479709145416032712 0.00122358799445595675670084290232
As 4.06599313099999903897696640342474 1.43148696599999980527684328990290 25.40185161799999846721220819745213 0.00000000000000000000000000000000 -0.00171955379426800615029480301388 -0.00055844360663129624135214701397
As 2.03299656499999992220750755222980 4.30352698999999994100562616949901 27.43392567700000483910116599872708 -0.00000000000000000000000000000000 -0.00014732421114168174906995656404 0.00282255705045965496133297811809
As 6.09898969600000118163052320596762 4.30352698999999994100562616949901 27.43392567700000483910116599872708 0.00000000000000000000000000000000 -0.00014732421114168174906995656404 0.00282255705045965496133297811809
As 0.00000000000000000000000000000000 1.43148696599999980527684328990290 25.40185161799999846721220819745213 0.00000000000000000000000000000000 -0.00171955379426800615029480301388 -0.00055844360663129624135214701397
Ga 4.06599313099999903897696640342474 11.48642649363394063755094975931570 31.50244840899999942962494969833642 0.00000000000000000000000000000000 0.00170772671972609134741216685427 0.00127346739578490389735443422126
Ga 0.00000000000000000000000000000000 11.48642649363394063755094975931570 31.50244840899999942962494969833642 0.00000000000000000000000000000000 0.00170772671972609134741216685427 0.00127346739578490389735443422126
Ga 2.03299656499999992220750755222980 2.86351560200000010425469554320443 29.46807897700000822283072920981795 -0.00000000000000000000000000000000 -0.00103641168431434444255345717067 0.00331312353363300395384105634378
Ga 6.09898969600000118163052320596762 2.86351560200000010425469554320443 29.46807897700000822283072920981795 0.00000000000000000000000000000000 -0.00103641168431434444255345717067 0.00331312353363300395384105634378
As 0.00000000000000000000000000000000 1.42558594799999993618655480531743 29.46764112500000365457708539906889 0.00000000000000000000000000000000 0.00193244113602247867371441980566 0.00214532847777695054661273310614
As 6.09898969600000118163052320596762 4.29822200400000031805802791495807 31.50218542800000065540189098101109 0.00000000000000000000000000000000 0.00347921679785207242294187146570 -0.00270942851136307541817793698158
As 2.03299656499999992220750755222980 4.29822200400000031805802791495807 31.50218542800000065540189098101109 -0.00000000000000000000000000000000 0.00347921679785207242294187146570 -0.00270942851136307541817793698158
As 4.06599313099999903897696640342474 1.42558594799999993618655480531743 29.46764112500000365457708539906889 0.00000000000000000000000000000000 0.00193244113602247867371441980566 0.00214532847777695054661273310614
Ga 0.00000000000000000000000000000000 11.48412252863394122925910778576508 35.57069523800000609980997978709638 0.00000000000000000000000000000000 -0.00276033635395653634270196619127 0.00010361545739982158068504675130
Ga 4.06599313099999903897696640342474 11.48412252863394122925910778576508 35.57069523800000609980997978709638 0.00000000000000000000000000000000 -0.00276033635395653634270196619127 0.00010361545739982158068504675130
Ga 6.09898969600000118163052320596762 2.86015043299999982551184984913561 33.53752091100000143342185765504837 -0.00000000000000000000000000000000 0.00085077803606950280421172827516 0.00245128975396997168464952032707
Ga 2.03299656499999992220750755222980 2.86015043299999982551184984913561 33.53752091100000143342185765504837 0.00000000000000000000000000000000 0.00085077803606950280421172827516 0.00245128975396997168464952032707
As 4.06599313099999903897696640342474 1.42254181199999973905789829586865 33.53569199500000053149051382206380 0.00000000000000000000000000000000 -0.00462927124189525373426645771247 0.00026688050814147588375713215925
As 2.03299656499999992220750755222980 4.29513681999999974436832417268306 35.57212989199999242373451124876738 0.00000000000000000000000000000000 0.00261995412135032678183077514689 0.00129017956633326177570686432716
As 6.09898969600000118163052320596762 4.29513681999999974436832417268306 35.57212989199999242373451124876738 -0.00000000000000000000000000000000 0.00261995412135032678183077514689 0.00129017956633326177570686432716
As 0.00000000000000000000000000000000 1.42254181199999973905789829586865 33.53569199500000053149051382206380 0.00000000000000000000000000000000 -0.00462927124189525373426645771247 0.00026688050814147588375713215925
Ga 4.06599313099999903897696640342474 11.47219529563393969340268085943535 39.63536175299999797516647959128022 0.00000000000000000000000000000000 -0.00407108474558008550520105117698 -0.00256081874864075081585368387493
Ga -0.00000002299516623606556288967446 11.47219529563393969340268085943535 39.63536175299999797516647959128022 0.00000000000000000000000000000000 -0.00407108474558008550520105117698 -0.00256081874864075081585368387493
Ga 2.03299656499999992220750755222980 2.85636868299999990838955454819370 37.60818993000000176607500179670751 -0.00000000000000000000000000000000 0.00105003853106915966825196662171 -0.00324550352049118471728372803398
Ga 6.09898969600000118163052320596762 2.85636868299999990838955454819370 37.60818993000000176607500179670751 0.00000000000000000000000000000000 0.00105003853106915966825196662171 -0.00324550352049118471728372803398
As 0.00000000000000000000000000000000 1.41927009999999986789021022559609 37.60594635700000765154982218518853 0.00000000000000000000000000000000 0.00116265284953348166895048532155 0.00069651184639234881273289756720
As 6.09898969600000118163052320596762 4.28191172100000017053389456123114 39.64881922400000036077472032047808 -0.00000000000000000000000000000000 0.00438115978683116351344306593774 0.00236412935680237971253214723788
As 2.03299656499999992220750755222980 4.28191172100000017053389456123114 39.64881922400000036077472032047808 0.00000000000000000000000000000000 0.00438115978683116351344306593774 0.00236412935680237971253214723788
As 4.06599313099999903897696640342474 1.41927009999999986789021022559609 37.60594635700000765154982218518853 0.00000000000000000000000000000000 0.00116265284953348166895048532155 0.00069651184639234881273289756720
As 0.00000000000000000000000000000000 0.15060536399999996381993128125032 43.79457971499999757725163362920284 0.00000000000000000000000000000000 0.00206536716946095896471624620006 0.00256544673433106544535586834854
As 4.06599313099999903897696640342474 0.15060536399999996381993128125032 43.79457971499999757725163362920284 0.00000000000000000000000000000000 0.00206536716946095896471624620006 0.00256544673433106544535586834854
Ga 6.09898969600000118163052320596762 2.94463850300000018478385754860938 41.76103604400000079976962297223508 0.00000000000000000000000000000000 -0.00217849570855753807419041834237 0.00007867575673534837627648430569
Ga 2.03299656499999992220750755222980 2.94463850300000018478385754860938 41.76103604400000079976962297223508 -0.00000000000000000000000000000000 -0.00217849570855753807419041834237 0.00007867575673534837627648430569
As 4.06599313099999903897696640342474 1.44547153399999972478440213308204 41.65665822300000087352600530721247 0.00000000000000000000000000000000 0.00432793795139254679205098597095 0.00409705288750907264255785023011
As 2.03299656499999992220750755222980 4.30592974399999928181159702944569 43.84911461699999790653237141668797 -0.00000000000000000000000000000000 -0.00355634989269064871394987470410 -0.00190415900124833357108522502443
As 6.09898969600000118163052320596762 4.30592974399999928181159702944569 43.84911461699999790653237141668797 0.00000000000000000000000000000000 -0.00355634989269064871394987470410 -0.00190415900124833357108522502443
As 0.00000000000000000000000000000000 1.44547153399999972478440213308204 41.65665822300000087352600530721247 0.00000000000000000000000000000000 0.00432793795139254679205098597095 0.00409705288750907264255785023011
Ga -0.00000002299516623606556288967446 5.72466951000000001670287019805983 3.02712073200000020278821466490626 0.00000000000000000000000000000000 0.00251710999489889071523140984254 -0.00141564940060401344736062956287
Ga 4.06599313099999903897696640342474 5.72466951000000001670287019805983 3.02712073200000020278821466490626 0.00000000000000000000000000000000 0.00251710999489889071523140984254 -0.00141564940060401344736062956287
Ga 6.09898969600000118163052320596762 8.65188035999999982550434651784599 0.90218829700000002791426823023357 -0.00000000000000000000000000000000 0.00076027520479223897453130431856 -0.00073302151128260863155450266504
Ga 2.03299656499999992220750755222980 8.65188035999999982550434651784599 0.90218829700000002791426823023357 0.00000000000000000000000000000000 0.00076027520479223897453130431856 -0.00073302151128260863155450266504
Ga 4.06599313099999903897696640342474 7.46514052199999955661269268603064 1.20924095899999994863094343600096 0.00000000000000000000000000000000 -0.00084255050595338754591823171580 0.00148172675184906114075056304813
As 2.03299656499999992220750755222980 10.02071198500000015485511539736763 2.98987713399999988084232427354436 0.00000000000000000000000000000000 -0.00097727631160476847657636589872 -0.00309792219903337389882991281809
As 6.09898969600000118163052320596762 10.02071198500000015485511539736763 2.98987713399999988084232427354436 -0.00000000000000000000000000000000 -0.00097727631160476847657636589872 -0.00309792219903337389882991281809
Ga -0.00000002299516623606556288967446 7.46514052199999955661269268603064 1.20924095899999994863094343600096 0.00000000000000000000000000000000 -0.00084255050595338754591823171580 0.00148172675184906114075056304813
Ga 4.06599313099999903897696640342474 5.73374153999999958131184030207805 7.11805609399999994479912857059389 0.00000000000000000000000000000000 -0.00008561773527082027987217954790 -0.00038052326787031253568782673824
Ga 0.00000000000000000000000000000000 5.73374153999999958131184030207805 7.11805609399999994479912857059389 0.00000000000000000000000000000000 -0.00008561773527082027987217954790 -0.00038052326787031253568782673824
Ga 2.03299656499999992220750755222980 8.59518094000000054677457228535786 5.07533030500000048590436563245021 0.00000000000000000000000000000000 -0.00058955395488285555066765297738 -0.00325424527123955708435287803582
Ga 6.09898969600000118163052320596762 8.59518094000000054677457228535786 5.07533030500000048590436563245021 -0.00000000000000000000000000000000 -0.00058955395488285555066765297738 -0.00325424527123955708435287803582
As 0.00000000000000000000000000000000 7.16429207799999900885268289130181 5.07345650600000031005265554995276 0.00000000000000000000000000000000 0.00366279356356788519250011759709 0.00098370406950798331205398916666
As 6.09898969600000118163052320596762 10.05037344399999987842875270871446 7.09981221000000051191136662964709 0.00000000000000000000000000000000 0.00005527871796764673536410741872 -0.00277344898007909424278438770273
As 2.03299656499999992220750755222980 10.05037344399999987842875270871446 7.09981221000000051191136662964709 -0.00000000000000000000000000000000 0.00005527871796764673536410741872 -0.00277344898007909424278438770273
As 4.06599313099999903897696640342474 7.16429207799999900885268289130181 5.07345650600000031005265554995276 0.00000000000000000000000000000000 0.00366279356356788519250011759709 0.00098370406950798331205398916666
Ga 0.00000000000000000000000000000000 5.73544461799999982787312546861358 11.17774414700000029654347599716857 0.00000000000000000000000000000000 0.00294622711251750664385173905657 0.00051344930130879315195030487828
Ga 4.06599313099999903897696640342474 5.73544461799999982787312546861358 11.17774414700000029654347599716857 0.00000000000000000000000000000000 0.00294622711251750664385173905657 0.00051344930130879315195030487828
Ga 6.09898969600000118163052320596762 8.60969240300000038246253097895533 9.13808913399999944715546007500961 -0.00000000000000000000000000000000 -0.00153443436665542183756916205795 -0.00186610667446130253435687684771
Ga 2.03299656499999992220750755222980 8.60969240300000038246253097895533 9.13808913399999944715546007500961 0.00000000000000000000000000000000 -0.00153443436665542183756916205795 -0.00186610667446130253435687684771
As 4.06599313099999903897696640342474 7.17503660000000031971012504072860 9.14378129700000208401888812659308 0.00000000000000000000000000000000 0.00179514422720981198233758391325 -0.00352523954443909005515567223199
As 2.03299656499999992220750755222980 10.04997698300000052995528676547110 11.16913141400000064606956584611908 -0.00000000000000000000000000000000 -0.00119067787399149767509076713878 -0.00333394946923941913607958298371
As 6.09898969600000118163052320596762 10.04997698300000052995528676547110 11.16913141400000064606956584611908 0.00000000000000000000000000000000 -0.00119067787399149767509076713878 -0.00333394946923941913607958298371
As 0.00000000000000000000000000000000 7.17503660000000031971012504072860 9.14378129700000208401888812659308 0.00000000000000000000000000000000 0.00179514422720981198233758391325 -0.00352523954443909005515567223199
Ga 4.06599313099999903897696640342474 5.74063396500000067135260906070471 15.24309084600000119280593935400248 0.00000000000000000000000000000000 -0.00191624318610637747045677414803 -0.00146192925750715974238247429895
Ga 0.00000000000000000000000000000000 5.74063396500000067135260906070471 15.24309084600000119280593935400248 0.00000000000000000000000000000000 -0.00191624318610637747045677414803 -0.00146192925750715974238247429895
Ga 2.03299656499999992220750755222980 8.61221217299999786121134093264118 13.20591999100000002442811819491908 0.00000000000000000000000000000000 0.00367693463095495774381471498771 0.00179334445499691155952171062182
Ga 6.09898969600000118163052320596762 8.61221217299999786121134093264118 13.20591999100000002442811819491908 -0.00000000000000000000000000000000 0.00367693463095495774381471498771 0.00179334445499691155952171062182
As -0.00000002299516623606556288967446 7.17559215199999922418783171451651 13.20583174600000120335607789456844 0.00000000000000000000000000000000 0.00298505077025292388584465363977 0.00318456837556870811165032897350
As 6.09898969600000118163052320596762 10.05328505900000024553264665883034 15.23622184399999923698487691581249 0.00000000000000000000000000000000 0.00216126931737692287022190029688 -0.00040109209316059954300928702686
As 2.03299656499999992220750755222980 10.05328505900000024553264665883034 15.23622184399999923698487691581249 -0.00000000000000000000000000000000 0.00216126931737692287022190029688 -0.00040109209316059954300928702686
As 4.06599313099999903897696640342474 7.17559215199999922418783171451651 13.20583174600000120335607789456844 0.00000000000000000000000000000000 0.00298505077025292388584465363977 0.00318456837556870811165032897350
Ga 0.00000000000000000000000000000000 5.74629712899999933739536572829820 19.30662789000000856276528793387115 0.00000000000000000000000000000000 -0.00217412483318335340853888482116 -0.00076798851427609679878849568979
Ga 4.06599313099999903897696640342474 5.74629712899999933739536572829820 19.30662789000000856276528793387115 0.00000000000000000000000000000000 -0.00217412483318335340853888482116 -0.00076798851427609679878849568979
Ga 6.09898969600000118163052320596762 8.61910633399999959181059239199385 17.27385193300000310046016238629818 0.00000000000000000000000000000000 -0.00184168119442908628964616912782 -0.00264849336644060011358714490370
Ga 2.03299656499999992220750755222980 8.61910633399999959181059239199385 17.27385193300000310046016238629818 -0.00000000000000000000000000000000 -0.00184168119442908628964616912782 -0.00264849336644060011358714490370
As 4.06599313099999903897696640342474 7.18210328199999992193625075742602 17.27150119200000233377068070694804 0.00000000000000000000000000000000 -0.00211190413668023478990787289433 -0.00286986534862731590758699873334
As 2.03299656499999992220750755222980 10.05947977900000012141390470787883 19.30276136799999875393041293136775 0.00000000000000000000000000000000 -0.00315294380668489299460177655021 -0.00028127868584467688103933902255
As 6.09898969600000118163052320596762 10.05947977900000012141390470787883 19.30276136799999875393041293136775 -0.00000000000000000000000000000000 -0.00315294380668489299460177655021 -0.00028127868584467688103933902255
As 0.00000000000000000000000000000000 7.18210328199999992193625075742602 17.27150119200000233377068070694804 0.00000000000000000000000000000000 -0.00211190413668023478990787289433 -0.00286986534862731590758699873334
Ga 4.06599313099999903897696640342474 5.74632307899999883460395722067915 23.37036332300000296413600153755397 0.00000000000000000000000000000000 -0.00211164702636410525973809093614 0.00120970403738501330187515847570
Ga 0.00000000000000000000000000000000 5.74632307899999883460395722067915 23.37036332300000296413600153755397 0.00000000000000000000000000000000 -0.00211164702636410525973809093614 0.00120970403738501330187515847570
Ga 2.03299656499999992220750755222980 8.62213208199999847636263439198956 21.33738328200000466949859401211143 -0.00000000000000000000000000000000 -0.00251428178142147585802379516906 0.00226077100971868718767843198236
Ga 6.09898969600000118163052320596762 8.62213208199999847636263439198956 21.33738328200000466949859401211143 0.00000000000000000000000000000000 -0.00251428178142147585802379516906 0.00226077100971868718767843198236
As 0.00000000000000000000000000000000 7.18488431499999880003315411158837 21.33610836800000498669760418124497 0.00000000000000000000000000000000 -0.00269425900271148908299290170021 0.00071888044389553618866012252298
As 6.09898969600000118163052320596762 10.05900321800000085659121396020055 23.36820874200000019982326193712652 0.00000000000000000000000000000000 -0.00132308968679772129099780908490 0.00051524907352169335792574367261
As 2.03299656499999992220750755222980 10.05900321800000085659121396020055 23.36820874200000019982326193712652 -0.00000000000000000000000000000000 -0.00132308968679772129099780908490 0.00051524907352169335792574367261
As 4.06599313099999903897696640342474 7.18488431499999880003315411158837 21.33610836800000498669760418124497 0.00000000000000000000000000000000 -0.00269425900271148908299290170021 0.00071888044389553618866012252298
Ga -0.00000002299516623606556288967446 5.74068432999999966881432555965148 27.43513543700000667513450025580823 0.00000000000000000000000000000000 0.00179488711689368353636997444056 0.00243714868658290000069666092486
Ga 4.06599313099999903897696640342474 5.74068432999999966881432555965148 27.43513543700000667513450025580823 0.00000000000000000000000000000000 0.00179488711689368353636997444056 0.00243714868658290000069666092486