
     Program PWSCF v.7.1 starts on  5Sep2022 at 14:48:16 

     This program is part of the open-source Quantum ESPRESSO suite
     for quantum simulation of materials; please cite
         "P. Giannozzi et al., J. Phys.:Condens. Matter 21 395502 (2009);
         "P. Giannozzi et al., J. Phys.:Condens. Matter 29 465901 (2017);
         "P. Giannozzi et al., J. Chem. Phys. 152 154105 (2020);
          URL http://www.quantum-espresso.org", 
     in publications or presentations arising from this work. More details at
     http://www.quantum-espresso.org/quote

     Parallel version (MPI), running on     1 processors

     MPI processes distributed on     1 nodes
     8627 MiB available memory on the printing compute node when the environment starts

     Waiting for input...
     Reading input from standard input
Warning: card &CELL ignored
Warning: card / ignored

     Current dimensions of program PWSCF are:
     Max number of different atomic species (ntypx) = 10
     Max number of k-points (npk) =  40000
     Max angular momentum in pseudopotentials (lmaxx) =  4
     file N.pbe-n-kjpaw_psl.1.0.0.UPF: wavefunction(s)  2S renormalized

     gamma-point specific algorithms are used

     Subspace diagonalization in iterative solution of the eigenvalue problem:
     a serial algorithm will be used


     G-vector sticks info
     --------------------
     sticks:   dense  smooth     PW     G-vecs:    dense   smooth      PW
     Sum       11913   11913   2965               979259   979259  122321

     Using Slab Decomposition



     bravais-lattice index     =            1
     lattice parameter (alat)  =      24.9822  a.u.
     unit-cell volume          =   15591.6104 (a.u.)^3
     number of atoms/cell      =            2
     number of atomic types    =            2
     number of electrons       =         9.00
     number of Kohn-Sham states=            9
     kinetic-energy cutoff     =      60.0000  Ry
     charge density cutoff     =     240.0000  Ry
     scf convergence threshold =      1.0E-10
     mixing beta               =       0.5000
     number of iterations used =            8  plain     mixing
     energy convergence thresh.=      1.0E-04
     force convergence thresh. =      1.0E-03
     Exchange-correlation= SLA  PW   PBX  PBC
                           (   1   4   3   4   0   0   0)
     nstep                     =           50


     celldm(1)=  24.982179  celldm(2)=   0.000000  celldm(3)=   0.000000
     celldm(4)=   0.000000  celldm(5)=   0.000000  celldm(6)=   0.000000

     crystal axes: (cart. coord. in units of alat)
               a(1) = (   1.000000   0.000000   0.000000 )  
               a(2) = (   0.000000   1.000000   0.000000 )  
               a(3) = (   0.000000   0.000000   1.000000 )  

     reciprocal axes: (cart. coord. in units 2 pi/alat)
               b(1) = (  1.000000  0.000000  0.000000 )  
               b(2) = (  0.000000  1.000000  0.000000 )  
               b(3) = (  0.000000  0.000000  1.000000 )  


     PseudoPot. # 1 for C  read from file:
     ../../pseudos/C.pbe-tm-new-gipaw-dc.UPF
     MD5 check sum: c9fa938d11269a3b0a4c160d8754c0f1
     Pseudo is Norm-conserving, Zval =  4.0
     Generated by new atomic code, or converted to UPF format
     Using radial grid of 1441 points,  1 beta functions with: 
                l(1) =   0

     PseudoPot. # 2 for N  read from file:
     ../../pseudos/N.pbe-n-kjpaw_psl.1.0.0.UPF
     MD5 check sum: f3bb4f48f1bc93c19b8c25f14b2123da
     Pseudo is Projector augmented-wave + core cor, Zval =  5.0
     Generated using "atomic" code by A. Dal Corso  v.6.1 svn rev. 13369
     Shape of augmentation charge: PSQ
     Using radial grid of 1085 points,  4 beta functions with: 
                l(1) =   0
                l(2) =   0
                l(3) =   1
                l(4) =   1
     Q(r) pseudized with 0 coefficients 


     atomic species   valence    mass     pseudopotential
        C              4.00    12.01100     C ( 1.00)
        N              5.00    14.00700     N ( 1.00)

     No symmetry found



   Cartesian axes

     site n.     atom                  positions (alat units)
         1           C   tau(   1) = (   0.0000000   0.0000000   0.0000000  )
         2           N   tau(   2) = (   0.0378215   0.0000000   0.0000000  )

     -------------------------------------------------
     Parameters for Dispersion (Grimme-D2) Correction:
     -------------------------------------------------
       atom      VdW radius       C_6     

        C          2.744         60.710
        N          2.640         42.670

     number of k points=     1  Marzari-Vanderbilt smearing, width (Ry)=  0.0200
                       cart. coord. in units 2pi/alat
        k(    1) = (   0.0000000   0.0000000   0.0000000), wk =   2.0000000

     Dense  grid:   489630 G-vectors     FFT dimensions: ( 125, 125, 125)

     Estimated max dynamical RAM per process >     702.62 MB

     Check: negative core charge=   -0.000001

     Initial potential from superposition of free atoms

     starting charge       9.0000, renormalised to       9.0000

     negative rho (up, down):  4.298E-03 0.000E+00
     Starting wfcs are   12 randomized atomic wfcs
     Checking if some PAW data can be deallocated... 

     total cpu time spent up to now is        2.8 secs

     Self-consistent Calculation

     iteration #  1     ecut=    60.00 Ry     beta= 0.50
     Davidson diagonalization with overlap
     ethr =  1.00E-02,  avg # of iterations =  5.0

     negative rho (up, down):  1.023E-02 0.000E+00

     total cpu time spent up to now is        5.4 secs

     total energy              =     -28.18227746 Ry
     estimated scf accuracy    <       5.12208502 Ry

     iteration #  2     ecut=    60.00 Ry     beta= 0.50
     Davidson diagonalization with overlap
     ethr =  1.00E-02,  avg # of iterations =  2.0

     negative rho (up, down):  9.610E-03 0.000E+00

     total cpu time spent up to now is        7.5 secs

     total energy              =     -29.07947133 Ry
     estimated scf accuracy    <       0.33070215 Ry

     iteration #  3     ecut=    60.00 Ry     beta= 0.50
     Davidson diagonalization with overlap
     ethr =  3.67E-03,  avg # of iterations =  2.0

     negative rho (up, down):  9.886E-03 0.000E+00

     total cpu time spent up to now is        9.6 secs

     total energy              =     -29.16545527 Ry
     estimated scf accuracy    <       0.05674706 Ry

     iteration #  4     ecut=    60.00 Ry     beta= 0.50
     Davidson diagonalization with overlap
     ethr =  6.31E-04,  avg # of iterations =  5.0

     negative rho (up, down):  9.957E-03 0.000E+00

     total cpu time spent up to now is       11.9 secs

     total energy              =     -29.17352526 Ry
     estimated scf accuracy    <       0.00334107 Ry

     iteration #  5     ecut=    60.00 Ry     beta= 0.50
     Davidson diagonalization with overlap
     ethr =  3.71E-05,  avg # of iterations =  5.0

     negative rho (up, down):  1.014E-02 0.000E+00

     total cpu time spent up to now is       14.5 secs

     total energy              =     -29.17389336 Ry
     estimated scf accuracy    <       0.00113827 Ry

     iteration #  6     ecut=    60.00 Ry     beta= 0.50
     Davidson diagonalization with overlap
     ethr =  1.26E-05,  avg # of iterations =  2.0

     negative rho (up, down):  1.018E-02 0.000E+00

     total cpu time spent up to now is       16.5 secs

     total energy              =     -29.17404461 Ry
     estimated scf accuracy    <       0.00008570 Ry

     iteration #  7     ecut=    60.00 Ry     beta= 0.50
     Davidson diagonalization with overlap
     ethr =  9.52E-07,  avg # of iterations =  5.0

     negative rho (up, down):  1.018E-02 0.000E+00

     total cpu time spent up to now is       19.0 secs

     total energy              =     -29.17406435 Ry
     estimated scf accuracy    <       0.00000328 Ry

     iteration #  8     ecut=    60.00 Ry     beta= 0.50
     Davidson diagonalization with overlap
     ethr =  3.65E-08,  avg # of iterations =  2.0

     negative rho (up, down):  1.018E-02 0.000E+00

     total cpu time spent up to now is       21.0 secs

     total energy              =     -29.17406494 Ry
     estimated scf accuracy    <       0.00000022 Ry

     iteration #  9     ecut=    60.00 Ry     beta= 0.50
     Davidson diagonalization with overlap
     ethr =  2.40E-09,  avg # of iterations =  1.0

     negative rho (up, down):  1.018E-02 0.000E+00

     total cpu time spent up to now is       23.0 secs

     total energy              =     -29.17406497 Ry
     estimated scf accuracy    <          1.5E-09 Ry

     iteration # 10     ecut=    60.00 Ry     beta= 0.50
     Davidson diagonalization with overlap
     ethr =  1.64E-11,  avg # of iterations =  3.0

     negative rho (up, down):  1.018E-02 0.000E+00

     total cpu time spent up to now is       25.2 secs

     total energy              =     -29.17406497 Ry
     estimated scf accuracy    <          2.7E-09 Ry

     iteration # 11     ecut=    60.00 Ry     beta= 0.50
     Davidson diagonalization with overlap
     ethr =  1.64E-11,  avg # of iterations =  2.0

     negative rho (up, down):  1.018E-02 0.000E+00

     total cpu time spent up to now is       27.3 secs

     total energy              =     -29.17406497 Ry
     estimated scf accuracy    <          2.1E-10 Ry

     iteration # 12     ecut=    60.00 Ry     beta= 0.50
     Davidson diagonalization with overlap
     ethr =  2.39E-12,  avg # of iterations =  2.0

     negative rho (up, down):  1.018E-02 0.000E+00

     total cpu time spent up to now is       29.2 secs

     End of self-consistent calculation

          k = 0.0000 0.0000 0.0000 ( 61161 PWs)   bands (ev):

   -21.3319 -21.3319 -18.4178  -8.4860  -4.5150  -0.2904   0.3789   0.3789
     0.5041

     the Fermi energy is    -4.4771 ev

!    total energy              =     -29.17406497 Ry
     estimated scf accuracy    <          3.1E-12 Ry
     smearing contrib. (-TS)   =      -0.00656366 Ry
     internal energy E=F+TS    =     -29.16750131 Ry

     The total energy is F=E-TS. E is the sum of the following terms:
     one-electron contribution =     -89.71790850 Ry
     hartree contribution      =      46.34127803 Ry
     xc contribution           =     -10.85561582 Ry
     ewald contribution        =      33.13958265 Ry
     Dispersion Correction     =      -0.00000636 Ry
     one-center paw contrib.   =      -8.07483132 Ry

     convergence has been achieved in  12 iterations

     negative rho (up, down):  1.018E-02 0.000E+00

     Forces acting on atoms (cartesian axes, Ry/au):

     atom    1 type  1   force =   -30.85680305    0.00000000   -0.00000000
     atom    2 type  2   force =    30.85680305   -0.00000000    0.00000000

     Total force =    30.856803     Total SCF correction =     0.000004

     BFGS Geometry Optimization
     Energy error            =      0.0E+00 Ry
     Gradient error          =      3.1E+01 Ry/Bohr

     number of scf cycles    =   1
     number of bfgs steps    =   0

     energy             new  =     -29.1740649719 Ry

     new trust radius        =       0.5000000000 bohr
     new conv_thr            =            1.0E-10 Ry


ATOMIC_POSITIONS (angstrom)
C             0.0000000000        0.0000000000        0.0000000000    0   0   0
N             0.7645886055        0.0000000000        0.0000000000    1   0   0



     Writing config-only to output data dir ./pwscf.save/
     NEW-OLD atomic charge density approx. for the potential

     Check: negative core charge=   -0.000001

     negative rho (up, down):  7.327E-03 0.000E+00

     total cpu time spent up to now is       31.6 secs

     Self-consistent Calculation

     iteration #  1     ecut=    60.00 Ry     beta= 0.50
     Davidson diagonalization with overlap
     ethr =  1.00E-06,  avg # of iterations = 13.0

     negative rho (up, down):  6.485E-03 0.000E+00

     total cpu time spent up to now is       36.1 secs

     total energy              =     -37.34696343 Ry
     estimated scf accuracy    <       0.68487970 Ry

     iteration #  2     ecut=    60.00 Ry     beta= 0.50
     Davidson diagonalization with overlap
     ethr =  7.61E-03,  avg # of iterations =  2.0

     negative rho (up, down):  6.434E-03 0.000E+00

     total cpu time spent up to now is       38.1 secs

     total energy              =     -37.37220514 Ry
     estimated scf accuracy    <       0.67069896 Ry

     iteration #  3     ecut=    60.00 Ry     beta= 0.50
     Davidson diagonalization with overlap
     ethr =  7.45E-03,  avg # of iterations =  1.0

     negative rho (up, down):  7.084E-03 0.000E+00

     total cpu time spent up to now is       39.9 secs

     total energy              =     -37.50650522 Ry
     estimated scf accuracy    <       0.19038694 Ry

     iteration #  4     ecut=    60.00 Ry     beta= 0.50
     Davidson diagonalization with overlap
     ethr =  2.12E-03,  avg # of iterations =  1.0

     negative rho (up, down):  7.826E-03 0.000E+00

     total cpu time spent up to now is       41.8 secs

     total energy              =     -37.48176217 Ry
     estimated scf accuracy    <       0.08714875 Ry

     iteration #  5     ecut=    60.00 Ry     beta= 0.50
     Davidson diagonalization with overlap
     ethr =  9.68E-04,  avg # of iterations =  2.0

     negative rho (up, down):  8.086E-03 0.000E+00

     total cpu time spent up to now is       43.9 secs

     total energy              =     -37.43925393 Ry
     estimated scf accuracy    <       0.54033941 Ry

     iteration #  6     ecut=    60.00 Ry     beta= 0.50
     Davidson diagonalization with overlap
     ethr =  9.68E-04,  avg # of iterations =  1.0

     negative rho (up, down):  8.061E-03 0.000E+00

     total cpu time spent up to now is       45.8 secs

     total energy              =     -37.51975051 Ry
     estimated scf accuracy    <       0.08112408 Ry

     iteration #  7     ecut=    60.00 Ry     beta= 0.50
     Davidson diagonalization with overlap
     ethr =  9.01E-04,  avg # of iterations =  1.0

     negative rho (up, down):  8.073E-03 0.000E+00

     total cpu time spent up to now is       47.8 secs

     total energy              =     -37.51597809 Ry
     estimated scf accuracy    <       0.08137113 Ry

     iteration #  8     ecut=    60.00 Ry     beta= 0.50
     Davidson diagonalization with overlap
     ethr =  9.01E-04,  avg # of iterations =  1.0

     negative rho (up, down):  8.082E-03 0.000E+00

     total cpu time spent up to now is       49.7 secs

     total energy              =     -37.50428332 Ry
     estimated scf accuracy    <       0.07439135 Ry

     iteration #  9     ecut=    60.00 Ry     beta= 0.50
     Davidson diagonalization with overlap
     ethr =  8.27E-04,  avg # of iterations =  1.0

     negative rho (up, down):  8.078E-03 0.000E+00

     total cpu time spent up to now is       51.7 secs

     total energy              =     -37.50332471 Ry
     estimated scf accuracy    <       0.09017756 Ry

     iteration # 10     ecut=    60.00 Ry     beta= 0.50
     Davidson diagonalization with overlap
     ethr =  8.27E-04,  avg # of iterations =  1.0

     negative rho (up, down):  8.074E-03 0.000E+00

     total cpu time spent up to now is       53.6 secs

     total energy              =     -37.50388777 Ry
     estimated scf accuracy    <       0.09419945 Ry

     iteration # 11     ecut=    60.00 Ry     beta= 0.50
     Davidson diagonalization with overlap
     ethr =  8.27E-04,  avg # of iterations =  1.0

     negative rho (up, down):  8.068E-03 0.000E+00

     total cpu time spent up to now is       55.6 secs

     total energy              =     -37.50601029 Ry
     estimated scf accuracy    <       0.09808149 Ry

     iteration # 12     ecut=    60.00 Ry     beta= 0.50
     Davidson diagonalization with overlap
     ethr =  8.27E-04,  avg # of iterations =  1.0

     negative rho (up, down):  8.069E-03 0.000E+00

     total cpu time spent up to now is       57.5 secs

     total energy              =     -37.50398316 Ry
     estimated scf accuracy    <       0.10271636 Ry

     iteration # 13     ecut=    60.00 Ry     beta= 0.50
     Davidson diagonalization with overlap
     ethr =  8.27E-04,  avg # of iterations =  1.0

     negative rho (up, down):  8.069E-03 0.000E+00

     total cpu time spent up to now is       59.4 secs

     total energy              =     -37.50784409 Ry
     estimated scf accuracy    <       0.09648590 Ry

     iteration # 14     ecut=    60.00 Ry     beta= 0.50
     Davidson diagonalization with overlap
     ethr =  8.27E-04,  avg # of iterations =  1.0

     negative rho (up, down):  8.031E-03 0.000E+00

     total cpu time spent up to now is       61.3 secs

     total energy              =     -37.53705263 Ry
     estimated scf accuracy    <       0.08861914 Ry

     iteration # 15     ecut=    60.00 Ry     beta= 0.50
     Davidson diagonalization with overlap
     ethr =  8.27E-04,  avg # of iterations =  1.0

     negative rho (up, down):  8.069E-03 0.000E+00

     total cpu time spent up to now is       63.2 secs

     total energy              =     -37.51002748 Ry
     estimated scf accuracy    <       0.11367745 Ry

     iteration # 16     ecut=    60.00 Ry     beta= 0.50
     Davidson diagonalization with overlap
     ethr =  8.27E-04,  avg # of iterations =  1.0

     negative rho (up, down):  8.073E-03 0.000E+00

     total cpu time spent up to now is       65.1 secs

     total energy              =     -37.52145849 Ry
     estimated scf accuracy    <       0.06847998 Ry

     iteration # 17     ecut=    60.00 Ry     beta= 0.50
     Davidson diagonalization with overlap
     ethr =  7.61E-04,  avg # of iterations =  1.0

     negative rho (up, down):  8.200E-03 0.000E+00

     total cpu time spent up to now is       67.0 secs

     total energy              =     -37.49043228 Ry
     estimated scf accuracy    <       0.08389861 Ry

     iteration # 18     ecut=    60.00 Ry     beta= 0.50
     Davidson diagonalization with overlap
     ethr =  7.61E-04,  avg # of iterations =  1.0

     negative rho (up, down):  8.109E-03 0.000E+00

     total cpu time spent up to now is       68.9 secs

     total energy              =     -37.48464057 Ry
     estimated scf accuracy    <       0.66860794 Ry

     iteration # 19     ecut=    60.00 Ry     beta= 0.50
     Davidson diagonalization with overlap
     ethr =  7.61E-04,  avg # of iterations =  1.0

     negative rho (up, down):  8.144E-03 0.000E+00

     total cpu time spent up to now is       70.8 secs

     total energy              =     -37.49912725 Ry
     estimated scf accuracy    <       0.00234267 Ry

     iteration # 20     ecut=    60.00 Ry     beta= 0.50
     Davidson diagonalization with overlap
     ethr =  2.60E-05,  avg # of iterations =  1.0

     negative rho (up, down):  8.137E-03 0.000E+00

     total cpu time spent up to now is       72.7 secs

     total energy              =     -37.50143848 Ry
     estimated scf accuracy    <       0.14106676 Ry

     iteration # 21     ecut=    60.00 Ry     beta= 0.50
     Davidson diagonalization with overlap
     ethr =  2.60E-05,  avg # of iterations =  1.0

     negative rho (up, down):  8.123E-03 0.000E+00

     total cpu time spent up to now is       74.6 secs

     total energy              =     -37.49873771 Ry
     estimated scf accuracy    <       0.09149903 Ry

     iteration # 22     ecut=    60.00 Ry     beta= 0.50
     Davidson diagonalization with overlap
     ethr =  2.60E-05,  avg # of iterations =  1.0

     negative rho (up, down):  8.131E-03 0.000E+00

     total cpu time spent up to now is       76.5 secs

     total energy              =     -37.49962451 Ry
     estimated scf accuracy    <       0.00344398 Ry

     iteration # 23     ecut=    60.00 Ry     beta= 0.50
     Davidson diagonalization with overlap
     ethr =  2.60E-05,  avg # of iterations =  1.0

     negative rho (up, down):  8.128E-03 0.000E+00

     total cpu time spent up to now is       78.4 secs

     total energy              =     -37.49949662 Ry
     estimated scf accuracy    <       0.00131641 Ry

     iteration # 24     ecut=    60.00 Ry     beta= 0.50
     Davidson diagonalization with overlap
     ethr =  1.46E-05,  avg # of iterations =  1.0

     negative rho (up, down):  8.127E-03 0.000E+00

     total cpu time spent up to now is       80.3 secs

     total energy              =     -37.50026598 Ry
     estimated scf accuracy    <       0.03737300 Ry

     iteration # 25     ecut=    60.00 Ry     beta= 0.50
     Davidson diagonalization with overlap
     ethr =  1.46E-05,  avg # of iterations =  1.0

     negative rho (up, down):  8.118E-03 0.000E+00

     total cpu time spent up to now is       82.2 secs

     total energy              =     -37.49903515 Ry
     estimated scf accuracy    <       0.02605869 Ry

     iteration # 26     ecut=    60.00 Ry     beta= 0.50
     Davidson diagonalization with overlap
     ethr =  1.46E-05,  avg # of iterations =  1.0

     negative rho (up, down):  8.116E-03 0.000E+00

     total cpu time spent up to now is       84.1 secs

     total energy              =     -37.49975519 Ry
     estimated scf accuracy    <       0.00135092 Ry

     iteration # 27     ecut=    60.00 Ry     beta= 0.50
     Davidson diagonalization with overlap
     ethr =  1.46E-05,  avg # of iterations =  1.0

     negative rho (up, down):  8.116E-03 0.000E+00

     total cpu time spent up to now is       86.0 secs

     total energy              =     -37.49978166 Ry
     estimated scf accuracy    <       0.00000845 Ry

     iteration # 28     ecut=    60.00 Ry     beta= 0.50
     Davidson diagonalization with overlap
     ethr =  9.39E-08,  avg # of iterations =  1.0

     negative rho (up, down):  8.115E-03 0.000E+00

     total cpu time spent up to now is       87.9 secs

     total energy              =     -37.49977973 Ry
     estimated scf accuracy    <       0.00002079 Ry

     iteration # 29     ecut=    60.00 Ry     beta= 0.50
     Davidson diagonalization with overlap
     ethr =  9.39E-08,  avg # of iterations =  1.0

     negative rho (up, down):  8.116E-03 0.000E+00

     total cpu time spent up to now is       89.8 secs

     total energy              =     -37.49977929 Ry
     estimated scf accuracy    <       0.00000358 Ry

     iteration # 30     ecut=    60.00 Ry     beta= 0.50
     Davidson diagonalization with overlap
     ethr =  3.98E-08,  avg # of iterations =  1.0

     negative rho (up, down):  8.116E-03 0.000E+00

     total cpu time spent up to now is       91.7 secs

     total energy              =     -37.49977941 Ry
     estimated scf accuracy    <       0.00001223 Ry

     iteration # 31     ecut=    60.00 Ry     beta= 0.50
     Davidson diagonalization with overlap
     ethr =  3.98E-08,  avg # of iterations =  1.0

     negative rho (up, down):  8.117E-03 0.000E+00

     total cpu time spent up to now is       93.8 secs

     total energy              =     -37.49977941 Ry
     estimated scf accuracy    <       0.00000190 Ry

     iteration # 32     ecut=    60.00 Ry     beta= 0.50
     Davidson diagonalization with overlap
     ethr =  2.11E-08,  avg # of iterations =  1.0

     negative rho (up, down):  8.118E-03 0.000E+00

     total cpu time spent up to now is       95.8 secs

     total energy              =     -37.49977935 Ry
     estimated scf accuracy    <       0.00000076 Ry

     iteration # 33     ecut=    60.00 Ry     beta= 0.50
     Davidson diagonalization with overlap
     ethr =  8.43E-09,  avg # of iterations =  1.0

     negative rho (up, down):  8.118E-03 0.000E+00

     total cpu time spent up to now is       97.7 secs

     total energy              =     -37.49977927 Ry
     estimated scf accuracy    <       0.00000187 Ry

     iteration # 34     ecut=    60.00 Ry     beta= 0.50
     Davidson diagonalization with overlap
     ethr =  8.43E-09,  avg # of iterations =  1.0

     negative rho (up, down):  8.119E-03 0.000E+00

     total cpu time spent up to now is       99.7 secs

     total energy              =     -37.49977928 Ry
     estimated scf accuracy    <       0.00000061 Ry

     iteration # 35     ecut=    60.00 Ry     beta= 0.50
     Davidson diagonalization with overlap
     ethr =  6.78E-09,  avg # of iterations =  1.0

     negative rho (up, down):  8.119E-03 0.000E+00

     total cpu time spent up to now is      101.6 secs

     total energy              =     -37.49977932 Ry
     estimated scf accuracy    <       0.00000003 Ry

     iteration # 36     ecut=    60.00 Ry     beta= 0.50
     Davidson diagonalization with overlap
     ethr =  3.42E-10,  avg # of iterations =  2.0

     negative rho (up, down):  8.119E-03 0.000E+00

     total cpu time spent up to now is      103.6 secs

     total energy              =     -37.49977932 Ry
     estimated scf accuracy    <          1.8E-09 Ry

     iteration # 37     ecut=    60.00 Ry     beta= 0.50
     Davidson diagonalization with overlap
     ethr =  2.02E-11,  avg # of iterations =  2.0

     negative rho (up, down):  8.119E-03 0.000E+00

     total cpu time spent up to now is      105.6 secs

     total energy              =     -37.49977932 Ry
     estimated scf accuracy    <          2.5E-10 Ry

     iteration # 38     ecut=    60.00 Ry     beta= 0.50
     Davidson diagonalization with overlap
     ethr =  2.79E-12,  avg # of iterations =  1.0

     negative rho (up, down):  8.119E-03 0.000E+00

     total cpu time spent up to now is      107.4 secs

     End of self-consistent calculation

          k = 0.0000 0.0000 0.0000 ( 61161 PWs)   bands (ev):

   -25.0126 -12.8287 -12.8287  -8.8295  -8.6800  -0.2754   0.4846   0.4846
     0.5550

     the Fermi energy is    -8.6185 ev

!    total energy              =     -37.49977932 Ry
     estimated scf accuracy    <          1.6E-11 Ry
     smearing contrib. (-TS)   =      -0.00500921 Ry
     internal energy E=F+TS    =     -37.49477011 Ry

     The total energy is F=E-TS. E is the sum of the following terms:
     one-electron contribution =     -79.06356366 Ry
     hartree contribution      =      40.99007295 Ry
     xc contribution           =      -9.88494451 Ry
     ewald contribution        =      18.49615591 Ry
     Dispersion Correction     =      -0.00000453 Ry
     one-center paw contrib.   =      -8.03248628 Ry

     convergence has been achieved in  38 iterations

     negative rho (up, down):  8.119E-03 0.000E+00

     Forces acting on atoms (cartesian axes, Ry/au):

     atom    1 type  1   force =    -6.81451068   -0.00000000   -0.00000000
     atom    2 type  2   force =     6.81451068    0.00000000    0.00000000

     Total force =     6.814511     Total SCF correction =     0.000004
     Energy error            =      8.3E+00 Ry
     Gradient error          =      6.8E+00 Ry/Bohr

     number of scf cycles    =   2
     number of bfgs steps    =   1

     energy             old  =     -29.1740649719 Ry
     energy             new  =     -37.4997793211 Ry

     CASE: energy            _new < energy            _old

     new trust radius        =       0.1417192374 bohr
     new conv_thr            =            1.0E-10 Ry


ATOMIC_POSITIONS (angstrom)
C             0.0000000000        0.0000000000        0.0000000000    0   0   0
N             0.8395831962        0.0000000000        0.0000000000    1   0   0



     Writing config-only to output data dir ./pwscf.save/
     NEW-OLD atomic charge density approx. for the potential

     Check: negative core charge=   -0.000001

     negative rho (up, down):  5.702E-03 0.000E+00

     total cpu time spent up to now is      109.8 secs

     Self-consistent Calculation

     iteration #  1     ecut=    60.00 Ry     beta= 0.50
     Davidson diagonalization with overlap
     ethr =  1.00E-06,  avg # of iterations =  8.0

     negative rho (up, down):  5.953E-03 0.000E+00

     total cpu time spent up to now is      113.4 secs

     total energy              =     -38.26113718 Ry
     estimated scf accuracy    <       0.10880332 Ry

     iteration #  2     ecut=    60.00 Ry     beta= 0.50
     Davidson diagonalization with overlap
     ethr =  1.21E-03,  avg # of iterations =  2.0

     negative rho (up, down):  6.413E-03 0.000E+00

     total cpu time spent up to now is      115.4 secs

     total energy              =     -38.26019152 Ry
     estimated scf accuracy    <       0.06202207 Ry

     iteration #  3     ecut=    60.00 Ry     beta= 0.50
     Davidson diagonalization with overlap
     ethr =  6.89E-04,  avg # of iterations =  2.0

     negative rho (up, down):  6.621E-03 0.000E+00

     total cpu time spent up to now is      117.4 secs

     total energy              =     -38.25761897 Ry
     estimated scf accuracy    <       0.55137794 Ry

     iteration #  4     ecut=    60.00 Ry     beta= 0.50
     Davidson diagonalization with overlap
     ethr =  6.89E-04,  avg # of iterations =  1.0

     negative rho (up, down):  6.843E-03 0.000E+00

     total cpu time spent up to now is      119.2 secs

     total energy              =     -38.27764068 Ry
     estimated scf accuracy    <       0.02455418 Ry

     iteration #  5     ecut=    60.00 Ry     beta= 0.50
     Davidson diagonalization with overlap
     ethr =  2.73E-04,  avg # of iterations =  1.0

     negative rho (up, down):  7.161E-03 0.000E+00

     total cpu time spent up to now is      121.1 secs

     total energy              =     -38.27768903 Ry
     estimated scf accuracy    <       0.00168282 Ry

     iteration #  6     ecut=    60.00 Ry     beta= 0.50
     Davidson diagonalization with overlap
     ethr =  1.87E-05,  avg # of iterations =  2.0

     negative rho (up, down):  7.100E-03 0.000E+00

     total cpu time spent up to now is      123.1 secs

     total energy              =     -38.27769746 Ry
     estimated scf accuracy    <       0.00420079 Ry

     iteration #  7     ecut=    60.00 Ry     beta= 0.50
     Davidson diagonalization with overlap
     ethr =  1.87E-05,  avg # of iterations =  1.0

     negative rho (up, down):  7.116E-03 0.000E+00

     total cpu time spent up to now is      125.0 secs

     total energy              =     -38.27778742 Ry
     estimated scf accuracy    <       0.00314502 Ry

     iteration #  8     ecut=    60.00 Ry     beta= 0.50
     Davidson diagonalization with overlap
     ethr =  1.87E-05,  avg # of iterations =  1.0

     negative rho (up, down):  7.129E-03 0.000E+00

     total cpu time spent up to now is      126.9 secs

     total energy              =     -38.27789373 Ry
     estimated scf accuracy    <       0.00486665 Ry

     iteration #  9     ecut=    60.00 Ry     beta= 0.50
     Davidson diagonalization with overlap
     ethr =  1.87E-05,  avg # of iterations =  1.0

     negative rho (up, down):  7.129E-03 0.000E+00

     total cpu time spent up to now is      128.8 secs

     total energy              =     -38.27804149 Ry
     estimated scf accuracy    <       0.00010320 Ry

     iteration # 10     ecut=    60.00 Ry     beta= 0.50
     Davidson diagonalization with overlap
     ethr =  1.15E-06,  avg # of iterations = 19.0

     negative rho (up, down):  7.129E-03 0.000E+00

     total cpu time spent up to now is      132.3 secs

     total energy              =     -38.27803641 Ry
     estimated scf accuracy    <       0.00006615 Ry

     iteration # 11     ecut=    60.00 Ry     beta= 0.50
     Davidson diagonalization with overlap
     ethr =  7.35E-07,  avg # of iterations =  1.0

     negative rho (up, down):  7.129E-03 0.000E+00

     total cpu time spent up to now is      134.2 secs

     total energy              =     -38.27803894 Ry
     estimated scf accuracy    <       0.00004485 Ry

     iteration # 12     ecut=    60.00 Ry     beta= 0.50
     Davidson diagonalization with overlap
     ethr =  4.98E-07,  avg # of iterations =  1.0

     negative rho (up, down):  7.129E-03 0.000E+00

     total cpu time spent up to now is      136.1 secs

     total energy              =     -38.27804039 Ry
     estimated scf accuracy    <       0.00000271 Ry

     iteration # 13     ecut=    60.00 Ry     beta= 0.50
     Davidson diagonalization with overlap
     ethr =  3.02E-08,  avg # of iterations =  1.0

     negative rho (up, down):  7.128E-03 0.000E+00

     total cpu time spent up to now is      138.0 secs

     total energy              =     -38.27804045 Ry
     estimated scf accuracy    <       0.00000004 Ry

     iteration # 14     ecut=    60.00 Ry     beta= 0.50
     Davidson diagonalization with overlap
     ethr =  4.15E-10,  avg # of iterations =  1.0

     negative rho (up, down):  7.128E-03 0.000E+00

     total cpu time spent up to now is      140.0 secs

     total energy              =     -38.27804045 Ry
     estimated scf accuracy    <       0.00000004 Ry

     iteration # 15     ecut=    60.00 Ry     beta= 0.50
     Davidson diagonalization with overlap
     ethr =  4.15E-10,  avg # of iterations =  1.0

     negative rho (up, down):  7.128E-03 0.000E+00

     total cpu time spent up to now is      141.9 secs

     total energy              =     -38.27804045 Ry
     estimated scf accuracy    <          3.0E-09 Ry

     iteration # 16     ecut=    60.00 Ry     beta= 0.50
     Davidson diagonalization with overlap
     ethr =  3.31E-11,  avg # of iterations =  1.0

     negative rho (up, down):  7.128E-03 0.000E+00

     total cpu time spent up to now is      143.8 secs

     total energy              =     -38.27804045 Ry
     estimated scf accuracy    <          5.9E-10 Ry

     iteration # 17     ecut=    60.00 Ry     beta= 0.50
     Davidson diagonalization with overlap
     ethr =  6.59E-12,  avg # of iterations =  1.0

     negative rho (up, down):  7.128E-03 0.000E+00

     total cpu time spent up to now is      145.7 secs

     total energy              =     -38.27804045 Ry
     estimated scf accuracy    <          4.6E-10 Ry

     iteration # 18     ecut=    60.00 Ry     beta= 0.50
     Davidson diagonalization with overlap
     ethr =  5.16E-12,  avg # of iterations =  1.0

     negative rho (up, down):  7.128E-03 0.000E+00

     total cpu time spent up to now is      147.4 secs

     End of self-consistent calculation

          k = 0.0000 0.0000 0.0000 ( 61161 PWs)   bands (ev):

   -26.0179 -12.1456 -12.1456  -9.2918  -9.0156  -0.2864   0.4764   0.4764
     0.5166

     the Fermi energy is    -8.9963 ev

!    total energy              =     -38.27804045 Ry
     estimated scf accuracy    <          8.8E-12 Ry
     smearing contrib. (-TS)   =      -0.00153292 Ry
     internal energy E=F+TS    =     -38.27650753 Ry

     The total energy is F=E-TS. E is the sum of the following terms:
     one-electron contribution =     -75.89411079 Ry
     hartree contribution      =      39.18566187 Ry
     xc contribution           =      -9.56611327 Ry
     ewald contribution        =      16.02562973 Ry
     Dispersion Correction     =      -0.00000447 Ry
     one-center paw contrib.   =      -8.02757060 Ry

     convergence has been achieved in  18 iterations

     negative rho (up, down):  7.128E-03 0.000E+00

     Forces acting on atoms (cartesian axes, Ry/au):

     atom    1 type  1   force =    -4.37399052    0.00000000    0.00000000
     atom    2 type  2   force =     4.37399052   -0.00000000   -0.00000000

     Total force =     4.373991     Total SCF correction =     0.000006
     Energy error            =      7.8E-01 Ry
     Gradient error          =      4.4E+00 Ry/Bohr

     number of scf cycles    =   3
     number of bfgs steps    =   2

     energy             old  =     -37.4997793211 Ry
     energy             new  =     -38.2780404456 Ry

     CASE: energy            _new < energy            _old

     new trust radius        =       0.1558911611 bohr
     new conv_thr            =            1.0E-10 Ry


ATOMIC_POSITIONS (angstrom)
C             0.0000000000        0.0000000000        0.0000000000    0   0   0
N             0.9220772461        0.0000000000        0.0000000000    1   0   0



     Writing config-only to output data dir ./pwscf.save/
     NEW-OLD atomic charge density approx. for the potential

     Check: negative core charge=   -0.000001

     negative rho (up, down):  5.140E-03 0.000E+00

     total cpu time spent up to now is      149.8 secs

     Self-consistent Calculation

     iteration #  1     ecut=    60.00 Ry     beta= 0.50
     Davidson diagonalization with overlap
     ethr =  1.00E-06,  avg # of iterations =  8.0

     negative rho (up, down):  5.502E-03 0.000E+00

     total cpu time spent up to now is      153.4 secs

     total energy              =     -38.78657003 Ry
     estimated scf accuracy    <       0.05384154 Ry

     iteration #  2     ecut=    60.00 Ry     beta= 0.50
     Davidson diagonalization with overlap
     ethr =  5.98E-04,  avg # of iterations =  2.0

     negative rho (up, down):  5.825E-03 0.000E+00

     total cpu time spent up to now is      155.4 secs

     total energy              =     -38.78604991 Ry
     estimated scf accuracy    <       0.05991722 Ry

     iteration #  3     ecut=    60.00 Ry     beta= 0.50
     Davidson diagonalization with overlap
     ethr =  5.98E-04,  avg # of iterations =  2.0

     negative rho (up, down):  6.135E-03 0.000E+00

     total cpu time spent up to now is      157.4 secs

     total energy              =     -38.79298199 Ry
     estimated scf accuracy    <       0.05103437 Ry

     iteration #  4     ecut=    60.00 Ry     beta= 0.50
     Davidson diagonalization with overlap
     ethr =  5.67E-04,  avg # of iterations =  1.0

     negative rho (up, down):  6.320E-03 0.000E+00

     total cpu time spent up to now is      159.2 secs

     total energy              =     -38.79871073 Ry
     estimated scf accuracy    <       0.00209390 Ry

     iteration #  5     ecut=    60.00 Ry     beta= 0.50
     Davidson diagonalization with overlap
     ethr =  2.33E-05,  avg # of iterations =  1.0

     negative rho (up, down):  6.552E-03 0.000E+00

     total cpu time spent up to now is      161.1 secs

     total energy              =     -38.79880766 Ry
     estimated scf accuracy    <       0.00018819 Ry

     iteration #  6     ecut=    60.00 Ry     beta= 0.50
     Davidson diagonalization with overlap
     ethr =  2.09E-06,  avg # of iterations =  6.0

     negative rho (up, down):  6.548E-03 0.000E+00

     total cpu time spent up to now is      163.4 secs

     total energy              =     -38.79883645 Ry
     estimated scf accuracy    <       0.00006692 Ry

     iteration #  7     ecut=    60.00 Ry     beta= 0.50
     Davidson diagonalization with overlap
     ethr =  7.44E-07,  avg # of iterations =  1.0

     negative rho (up, down):  6.553E-03 0.000E+00

     total cpu time spent up to now is      165.3 secs

     total energy              =     -38.79884226 Ry
     estimated scf accuracy    <       0.00000016 Ry

     iteration #  8     ecut=    60.00 Ry     beta= 0.50
     Davidson diagonalization with overlap
     ethr =  1.78E-09,  avg # of iterations =  4.0

     negative rho (up, down):  6.555E-03 0.000E+00

     total cpu time spent up to now is      167.5 secs

     total energy              =     -38.79884239 Ry
     estimated scf accuracy    <       0.00000018 Ry

     iteration #  9     ecut=    60.00 Ry     beta= 0.50
     Davidson diagonalization with overlap
     ethr =  1.78E-09,  avg # of iterations =  2.0

     negative rho (up, down):  6.555E-03 0.000E+00

     total cpu time spent up to now is      169.6 secs

     total energy              =     -38.79884240 Ry
     estimated scf accuracy    <       0.00000007 Ry

     iteration # 10     ecut=    60.00 Ry     beta= 0.50
     Davidson diagonalization with overlap
     ethr =  7.88E-10,  avg # of iterations =  1.0

     negative rho (up, down):  6.555E-03 0.000E+00

     total cpu time spent up to now is      171.5 secs

     total energy              =     -38.79884241 Ry
     estimated scf accuracy    <       0.00000003 Ry

     iteration # 11     ecut=    60.00 Ry     beta= 0.50
     Davidson diagonalization with overlap
     ethr =  3.05E-10,  avg # of iterations =  1.0

     negative rho (up, down):  6.555E-03 0.000E+00

     total cpu time spent up to now is      173.4 secs

     total energy              =     -38.79884241 Ry
     estimated scf accuracy    <          1.9E-09 Ry

     iteration # 12     ecut=    60.00 Ry     beta= 0.50
     Davidson diagonalization with overlap
     ethr =  2.16E-11,  avg # of iterations =  1.0

     negative rho (up, down):  6.555E-03 0.000E+00

     total cpu time spent up to now is      175.1 secs

     End of self-consistent calculation

          k = 0.0000 0.0000 0.0000 ( 61161 PWs)   bands (ev):

   -25.7365 -11.2690 -11.2690  -9.9829  -8.9435  -0.2979   0.4529   0.4529
     0.5095

     the Fermi energy is    -8.9056 ev

!    total energy              =     -38.79884241 Ry
     estimated scf accuracy    <          2.7E-11 Ry
     smearing contrib. (-TS)   =      -0.00656238 Ry
     internal energy E=F+TS    =     -38.79228004 Ry

     The total energy is F=E-TS. E is the sum of the following terms:
     one-electron contribution =     -72.83685803 Ry
     hartree contribution      =      37.58792985 Ry
     xc contribution           =      -9.30447884 Ry
     ewald contribution        =      13.77290382 Ry
     Dispersion Correction     =      -0.00000450 Ry
     one-center paw contrib.   =      -8.01177234 Ry

     convergence has been achieved in  12 iterations

     negative rho (up, down):  6.555E-03 0.000E+00

     Forces acting on atoms (cartesian axes, Ry/au):

     atom    1 type  1   force =    -2.44732057    0.00000000   -0.00000000
     atom    2 type  2   force =     2.44732057   -0.00000000    0.00000000

     Total force =     2.447321     Total SCF correction =     0.000004
     Energy error            =      5.2E-01 Ry
     Gradient error          =      2.4E+00 Ry/Bohr

     number of scf cycles    =   4
     number of bfgs steps    =   3

     energy             old  =     -38.2780404456 Ry
     energy             new  =     -38.7988424145 Ry

     CASE: energy            _new < energy            _old

     new trust radius        =       0.1980181625 bohr
     new conv_thr            =            1.0E-10 Ry


ATOMIC_POSITIONS (angstrom)
C             0.0000000000        0.0000000000        0.0000000000    0   0   0
N             1.0268639451        0.0000000000        0.0000000000    1   0   0



     Writing config-only to output data dir ./pwscf.save/
     NEW-OLD atomic charge density approx. for the potential

     Check: negative core charge=   -0.000001

     negative rho (up, down):  4.747E-03 0.000E+00

     total cpu time spent up to now is      177.6 secs

     Self-consistent Calculation

     iteration #  1     ecut=    60.00 Ry     beta= 0.50
     Davidson diagonalization with overlap
     c_bands:  2 eigenvalues not converged
     ethr =  1.00E-06,  avg # of iterations = 20.0

     negative rho (up, down):  5.100E-03 0.000E+00

     total cpu time spent up to now is      182.3 secs

     total energy              =     -39.11783804 Ry
     estimated scf accuracy    <       0.05602287 Ry

     iteration #  2     ecut=    60.00 Ry     beta= 0.50
     Davidson diagonalization with overlap
     ethr =  6.22E-04,  avg # of iterations =  2.0

     negative rho (up, down):  5.553E-03 0.000E+00

     total cpu time spent up to now is      184.3 secs

     total energy              =     -39.12547234 Ry
     estimated scf accuracy    <       0.00393061 Ry

     iteration #  3     ecut=    60.00 Ry     beta= 0.50
     Davidson diagonalization with overlap
     ethr =  4.37E-05,  avg # of iterations =  9.0

     negative rho (up, down):  5.606E-03 0.000E+00

     total cpu time spent up to now is      187.1 secs

     total energy              =     -39.12484251 Ry
     estimated scf accuracy    <       0.02020166 Ry

     iteration #  4     ecut=    60.00 Ry     beta= 0.50
     Davidson diagonalization with overlap
     ethr =  4.37E-05,  avg # of iterations =  2.0

     negative rho (up, down):  5.867E-03 0.000E+00

     total cpu time spent up to now is      189.1 secs

     total energy              =     -39.12693367 Ry
     estimated scf accuracy    <       0.00015251 Ry

     iteration #  5     ecut=    60.00 Ry     beta= 0.50
     Davidson diagonalization with overlap
     ethr =  1.69E-06,  avg # of iterations =  2.0

     negative rho (up, down):  5.961E-03 0.000E+00

     total cpu time spent up to now is      191.1 secs

     total energy              =     -39.12694182 Ry
     estimated scf accuracy    <       0.00001339 Ry

     iteration #  6     ecut=    60.00 Ry     beta= 0.50
     Davidson diagonalization with overlap
     ethr =  1.49E-07,  avg # of iterations =  1.0

     negative rho (up, down):  5.970E-03 0.000E+00

     total cpu time spent up to now is      193.0 secs

     total energy              =     -39.12694271 Ry
     estimated scf accuracy    <       0.00000029 Ry

     iteration #  7     ecut=    60.00 Ry     beta= 0.50
     Davidson diagonalization with overlap
     ethr =  3.24E-09,  avg # of iterations =  2.0

     negative rho (up, down):  5.971E-03 0.000E+00

     total cpu time spent up to now is      195.0 secs

     total energy              =     -39.12694274 Ry
     estimated scf accuracy    <       0.00000005 Ry

     iteration #  8     ecut=    60.00 Ry     beta= 0.50
     Davidson diagonalization with overlap
     ethr =  5.08E-10,  avg # of iterations =  2.0

     negative rho (up, down):  5.971E-03 0.000E+00

     total cpu time spent up to now is      197.0 secs

     total energy              =     -39.12694275 Ry
     estimated scf accuracy    <          6.7E-10 Ry

     iteration #  9     ecut=    60.00 Ry     beta= 0.50
     Davidson diagonalization with overlap
     ethr =  7.40E-12,  avg # of iterations =  3.0

     negative rho (up, down):  5.971E-03 0.000E+00

     total cpu time spent up to now is      199.2 secs

     total energy              =     -39.12694275 Ry
     estimated scf accuracy    <          3.0E-10 Ry

     iteration # 10     ecut=    60.00 Ry     beta= 0.50
     Davidson diagonalization with overlap
     ethr =  3.33E-12,  avg # of iterations =  2.0

     negative rho (up, down):  5.971E-03 0.000E+00

     total cpu time spent up to now is      201.1 secs

     End of self-consistent calculation

          k = 0.0000 0.0000 0.0000 ( 61161 PWs)   bands (ev):

   -25.0374 -10.7377 -10.4222 -10.4222  -8.8946  -0.3160   0.0806   0.0806
     0.4926

     the Fermi energy is    -8.8567 ev

!    total energy              =     -39.12694275 Ry
     estimated scf accuracy    <          1.0E-11 Ry
     smearing contrib. (-TS)   =      -0.00656366 Ry
     internal energy E=F+TS    =     -39.12037909 Ry

     The total energy is F=E-TS. E is the sum of the following terms:
     one-electron contribution =     -69.28294287 Ry
     hartree contribution      =      35.74639627 Ry
     xc contribution           =      -9.01702186 Ry
     ewald contribution        =      11.43434558 Ry
     Dispersion Correction     =      -0.00000468 Ry
     one-center paw contrib.   =      -8.00115153 Ry

     convergence has been achieved in  10 iterations

     negative rho (up, down):  5.971E-03 0.000E+00

     Forces acting on atoms (cartesian axes, Ry/au):

     atom    1 type  1   force =    -1.00762917   -0.00000000   -0.00000000
     atom    2 type  2   force =     1.00762917    0.00000000    0.00000000

     Total force =     1.007629     Total SCF correction =     0.000007
     Energy error            =      3.3E-01 Ry
     Gradient error          =      1.0E+00 Ry/Bohr

     number of scf cycles    =   5
     number of bfgs steps    =   4

     energy             old  =     -38.7988424145 Ry
     energy             new  =     -39.1269427468 Ry

     CASE: energy            _new < energy            _old

     new trust radius        =       0.1385914222 bohr
     new conv_thr            =            1.0E-10 Ry


ATOMIC_POSITIONS (angstrom)
C             0.0000000000        0.0000000000        0.0000000000    0   0   0
N             1.1002033673        0.0000000000        0.0000000000    1   0   0



     Writing config-only to output data dir ./pwscf.save/
     NEW-OLD atomic charge density approx. for the potential

     Check: negative core charge=   -0.000001

     negative rho (up, down):  5.512E-03 0.000E+00

     total cpu time spent up to now is      203.5 secs

     Self-consistent Calculation

     iteration #  1     ecut=    60.00 Ry     beta= 0.50
     Davidson diagonalization with overlap
     ethr =  1.00E-06,  avg # of iterations = 11.0

     negative rho (up, down):  5.427E-03 0.000E+00

     total cpu time spent up to now is      207.1 secs

     total energy              =     -39.21918517 Ry
     estimated scf accuracy    <       0.01893368 Ry

     iteration #  2     ecut=    60.00 Ry     beta= 0.50
     Davidson diagonalization with overlap
     ethr =  2.10E-04,  avg # of iterations =  2.0

     negative rho (up, down):  5.532E-03 0.000E+00

     total cpu time spent up to now is      209.1 secs

     total energy              =     -39.22204328 Ry
     estimated scf accuracy    <       0.00059887 Ry

     iteration #  3     ecut=    60.00 Ry     beta= 0.50
     Davidson diagonalization with overlap
     ethr =  6.65E-06,  avg # of iterations =  5.0

     negative rho (up, down):  5.551E-03 0.000E+00

     total cpu time spent up to now is      211.4 secs

     total energy              =     -39.22201539 Ry
     estimated scf accuracy    <       0.00050529 Ry

     iteration #  4     ecut=    60.00 Ry     beta= 0.50
     Davidson diagonalization with overlap
     ethr =  5.61E-06,  avg # of iterations =  1.0

     negative rho (up, down):  5.623E-03 0.000E+00

     total cpu time spent up to now is      213.5 secs

     total energy              =     -39.22209804 Ry
     estimated scf accuracy    <       0.00020814 Ry

     iteration #  5     ecut=    60.00 Ry     beta= 0.50
     Davidson diagonalization with overlap
     ethr =  2.31E-06,  avg # of iterations =  1.0

     negative rho (up, down):  5.643E-03 0.000E+00

     total cpu time spent up to now is      215.7 secs

     total energy              =     -39.22211722 Ry
     estimated scf accuracy    <       0.00000224 Ry

     iteration #  6     ecut=    60.00 Ry     beta= 0.50
     Davidson diagonalization with overlap
     ethr =  2.48E-08,  avg # of iterations =  2.0

     negative rho (up, down):  5.643E-03 0.000E+00

     total cpu time spent up to now is      218.0 secs

     total energy              =     -39.22211752 Ry
     estimated scf accuracy    <       0.00000021 Ry

     iteration #  7     ecut=    60.00 Ry     beta= 0.50
     Davidson diagonalization with overlap
     ethr =  2.35E-09,  avg # of iterations =  1.0

     negative rho (up, down):  5.644E-03 0.000E+00

     total cpu time spent up to now is      219.9 secs

     total energy              =     -39.22211754 Ry
     estimated scf accuracy    <          3.7E-09 Ry

     iteration #  8     ecut=    60.00 Ry     beta= 0.50
     Davidson diagonalization with overlap
     ethr =  4.06E-11,  avg # of iterations =  2.0

     negative rho (up, down):  5.644E-03 0.000E+00

     total cpu time spent up to now is      222.0 secs

     total energy              =     -39.22211754 Ry
     estimated scf accuracy    <          3.7E-10 Ry

     iteration #  9     ecut=    60.00 Ry     beta= 0.50
     Davidson diagonalization with overlap
     ethr =  4.13E-12,  avg # of iterations =  1.0

     negative rho (up, down):  5.644E-03 0.000E+00

     total cpu time spent up to now is      223.8 secs

     End of self-consistent calculation

          k = 0.0000 0.0000 0.0000 ( 61161 PWs)   bands (ev):

   -24.4111 -11.1975  -9.9398  -9.9398  -8.8801  -0.6059  -0.6059  -0.3278
     0.4797

     the Fermi energy is    -8.8422 ev

!    total energy              =     -39.22211754 Ry
     estimated scf accuracy    <          3.7E-11 Ry
     smearing contrib. (-TS)   =      -0.00656205 Ry
     internal energy E=F+TS    =     -39.21555549 Ry

     The total energy is F=E-TS. E is the sum of the following terms:
     one-electron contribution =     -67.02699015 Ry
     hartree contribution      =      34.59116792 Ry
     xc contribution           =      -8.84598256 Ry
     ewald contribution        =      10.06331425 Ry
     Dispersion Correction     =      -0.00000490 Ry
     one-center paw contrib.   =      -7.99706005 Ry

     convergence has been achieved in   9 iterations

     negative rho (up, down):  5.644E-03 0.000E+00

     Forces acting on atoms (cartesian axes, Ry/au):

     atom    1 type  1   force =    -0.40923216   -0.00000000    0.00000000
     atom    2 type  2   force =     0.40923216    0.00000000   -0.00000000

     Total force =     0.409232     Total SCF correction =     0.000014
     Energy error            =      9.5E-02 Ry
     Gradient error          =      4.1E-01 Ry/Bohr

     number of scf cycles    =   6
     number of bfgs steps    =   5

     energy             old  =     -39.1269427468 Ry
     energy             new  =     -39.2221175410 Ry

     CASE: energy            _new < energy            _old

     new trust radius        =       0.0947799954 bohr
     new conv_thr            =            1.0E-10 Ry


ATOMIC_POSITIONS (angstrom)
C             0.0000000000        0.0000000000        0.0000000000    0   0   0
N             1.1503587810        0.0000000000        0.0000000000    1   0   0



     Writing config-only to output data dir ./pwscf.save/
     NEW-OLD atomic charge density approx. for the potential

     Check: negative core charge=   -0.000001

     negative rho (up, down):  5.703E-03 0.000E+00

     total cpu time spent up to now is      226.2 secs

     Self-consistent Calculation

     iteration #  1     ecut=    60.00 Ry     beta= 0.50
     Davidson diagonalization with overlap
     ethr =  1.00E-06,  avg # of iterations =  8.0

     negative rho (up, down):  5.496E-03 0.000E+00

     total cpu time spent up to now is      229.5 secs

     total energy              =     -39.24593129 Ry
     estimated scf accuracy    <       0.00673215 Ry

     iteration #  2     ecut=    60.00 Ry     beta= 0.50
     Davidson diagonalization with overlap
     ethr =  7.48E-05,  avg # of iterations =  2.0

     negative rho (up, down):  5.445E-03 0.000E+00

     total cpu time spent up to now is      231.5 secs

     total energy              =     -39.24687387 Ry
     estimated scf accuracy    <       0.00028020 Ry

     iteration #  3     ecut=    60.00 Ry     beta= 0.50
     Davidson diagonalization with overlap
     ethr =  3.11E-06,  avg # of iterations =  2.0

     negative rho (up, down):  5.448E-03 0.000E+00

     total cpu time spent up to now is      233.5 secs

     total energy              =     -39.24684944 Ry
     estimated scf accuracy    <       0.00047373 Ry

     iteration #  4     ecut=    60.00 Ry     beta= 0.50
     Davidson diagonalization with overlap
     ethr =  3.11E-06,  avg # of iterations =  1.0

     negative rho (up, down):  5.438E-03 0.000E+00

     total cpu time spent up to now is      235.4 secs

     total energy              =     -39.24692360 Ry
     estimated scf accuracy    <       0.00005296 Ry

     iteration #  5     ecut=    60.00 Ry     beta= 0.50
     Davidson diagonalization with overlap
     ethr =  5.88E-07,  avg # of iterations =  1.0

     negative rho (up, down):  5.435E-03 0.000E+00

     total cpu time spent up to now is      237.3 secs

     total energy              =     -39.24692857 Ry
     estimated scf accuracy    <       0.00000058 Ry

     iteration #  6     ecut=    60.00 Ry     beta= 0.50
     Davidson diagonalization with overlap
     ethr =  6.48E-09,  avg # of iterations =  2.0

     negative rho (up, down):  5.435E-03 0.000E+00

     total cpu time spent up to now is      239.4 secs

     total energy              =     -39.24692865 Ry
     estimated scf accuracy    <       0.00000002 Ry

     iteration #  7     ecut=    60.00 Ry     beta= 0.50
     Davidson diagonalization with overlap
     ethr =  2.31E-10,  avg # of iterations =  1.0

     negative rho (up, down):  5.434E-03 0.000E+00

     total cpu time spent up to now is      241.3 secs

     total energy              =     -39.24692866 Ry
     estimated scf accuracy    <          2.0E-09 Ry

     iteration #  8     ecut=    60.00 Ry     beta= 0.50
     Davidson diagonalization with overlap
     ethr =  2.27E-11,  avg # of iterations =  2.0

     negative rho (up, down):  5.434E-03 0.000E+00

     total cpu time spent up to now is      243.3 secs

     total energy              =     -39.24692866 Ry
     estimated scf accuracy    <          2.1E-10 Ry

     iteration #  9     ecut=    60.00 Ry     beta= 0.50
     Davidson diagonalization with overlap
     ethr =  2.34E-12,  avg # of iterations =  2.0

     negative rho (up, down):  5.434E-03 0.000E+00

     total cpu time spent up to now is      245.3 secs

     End of self-consistent calculation

          k = 0.0000 0.0000 0.0000 ( 61161 PWs)   bands (ev):

   -23.9473 -11.4877  -9.6435  -9.6435  -8.8807  -1.0880  -1.0880  -0.3354
     0.4715

     the Fermi energy is    -8.8443 ev

!    total energy              =     -39.24692866 Ry
     estimated scf accuracy    <          1.5E-11 Ry
     smearing contrib. (-TS)   =      -0.00609207 Ry
     internal energy E=F+TS    =     -39.24083659 Ry

     The total energy is F=E-TS. E is the sum of the following terms:
     one-electron contribution =     -65.59329327 Ry
     hartree contribution      =      33.86289996 Ry
     xc contribution           =      -8.74179184 Ry
     ewald contribution        =       9.22669933 Ry
     Dispersion Correction     =      -0.00000510 Ry
     one-center paw contrib.   =      -7.99534568 Ry

     convergence has been achieved in   9 iterations

     negative rho (up, down):  5.434E-03 0.000E+00

     Forces acting on atoms (cartesian axes, Ry/au):

     atom    1 type  1   force =    -0.12774623    0.00000000    0.00000000
     atom    2 type  2   force =     0.12774623   -0.00000000   -0.00000000

     Total force =     0.127746     Total SCF correction =     0.000010
     Energy error            =      2.5E-02 Ry
     Gradient error          =      1.3E-01 Ry/Bohr

     number of scf cycles    =   7
     number of bfgs steps    =   6

     energy             old  =     -39.2221175410 Ry
     energy             new  =     -39.2469286614 Ry

     CASE: energy            _new < energy            _old

     new trust radius        =       0.0430138278 bohr
     new conv_thr            =            1.0E-10 Ry


ATOMIC_POSITIONS (angstrom)
C             0.0000000000        0.0000000000        0.0000000000    0   0   0
N             1.1731207184        0.0000000000        0.0000000000    1   0   0



     Writing config-only to output data dir ./pwscf.save/
     NEW-OLD atomic charge density approx. for the potential

     Check: negative core charge=   -0.000001

     negative rho (up, down):  5.600E-03 0.000E+00

     total cpu time spent up to now is      247.7 secs

     Self-consistent Calculation

     iteration #  1     ecut=    60.00 Ry     beta= 0.50
     Davidson diagonalization with overlap
     ethr =  1.00E-06,  avg # of iterations =  5.0

     negative rho (up, down):  5.461E-03 0.000E+00

     total cpu time spent up to now is      250.4 secs

     total energy              =     -39.24978699 Ry
     estimated scf accuracy    <       0.00142952 Ry

     iteration #  2     ecut=    60.00 Ry     beta= 0.50
     Davidson diagonalization with overlap
     ethr =  1.59E-05,  avg # of iterations =  2.0

     negative rho (up, down):  5.409E-03 0.000E+00

     total cpu time spent up to now is      252.4 secs

     total energy              =     -39.24973904 Ry
     estimated scf accuracy    <       0.00078236 Ry

     iteration #  3     ecut=    60.00 Ry     beta= 0.50
     Davidson diagonalization with overlap
     ethr =  8.69E-06,  avg # of iterations =  1.0

     negative rho (up, down):  5.388E-03 0.000E+00

     total cpu time spent up to now is      254.3 secs

     total energy              =     -39.24971952 Ry
     estimated scf accuracy    <       0.00087114 Ry

     iteration #  4     ecut=    60.00 Ry     beta= 0.50
     Davidson diagonalization with overlap
     ethr =  8.69E-06,  avg # of iterations =  1.0

     negative rho (up, down):  5.417E-03 0.000E+00

     total cpu time spent up to now is      256.2 secs

     total energy              =     -39.25040733 Ry
     estimated scf accuracy    <       0.00055981 Ry

     iteration #  5     ecut=    60.00 Ry     beta= 0.50
     Davidson diagonalization with overlap
     ethr =  6.22E-06,  avg # of iterations =  2.0

     negative rho (up, down):  5.396E-03 0.000E+00

     total cpu time spent up to now is      258.2 secs

     total energy              =     -39.25144040 Ry
     estimated scf accuracy    <       0.00018849 Ry

     iteration #  6     ecut=    60.00 Ry     beta= 0.50
     Davidson diagonalization with overlap
     ethr =  2.09E-06,  avg # of iterations =  3.0

     negative rho (up, down):  5.359E-03 0.000E+00

     total cpu time spent up to now is      260.4 secs

     total energy              =     -39.24983392 Ry
     estimated scf accuracy    <       0.00294747 Ry

     iteration #  7     ecut=    60.00 Ry     beta= 0.50
     Davidson diagonalization with overlap
     ethr =  2.09E-06,  avg # of iterations =  3.0

     negative rho (up, down):  5.355E-03 0.000E+00

     total cpu time spent up to now is      262.7 secs

     total energy              =     -39.24970507 Ry
     estimated scf accuracy    <       0.00032399 Ry

     iteration #  8     ecut=    60.00 Ry     beta= 0.50
     Davidson diagonalization with overlap
     ethr =  2.09E-06,  avg # of iterations =  2.0

     negative rho (up, down):  5.351E-03 0.000E+00

     total cpu time spent up to now is      264.7 secs

     total energy              =     -39.24825925 Ry
     estimated scf accuracy    <       0.00257147 Ry

     iteration #  9     ecut=    60.00 Ry     beta= 0.50
     Davidson diagonalization with overlap
     ethr =  2.09E-06,  avg # of iterations =  2.0

     negative rho (up, down):  5.351E-03 0.000E+00

     total cpu time spent up to now is      266.8 secs

     total energy              =     -39.24831612 Ry
     estimated scf accuracy    <       0.00031673 Ry

     iteration # 10     ecut=    60.00 Ry     beta= 0.50
     Davidson diagonalization with overlap
     ethr =  2.09E-06,  avg # of iterations =  1.0

     negative rho (up, down):  5.352E-03 0.000E+00

     total cpu time spent up to now is      268.8 secs

     total energy              =     -39.24864293 Ry
     estimated scf accuracy    <       0.00111606 Ry

     iteration # 11     ecut=    60.00 Ry     beta= 0.50
     Davidson diagonalization with overlap
     ethr =  2.09E-06,  avg # of iterations =  1.0

     negative rho (up, down):  5.354E-03 0.000E+00

     total cpu time spent up to now is      270.7 secs

     total energy              =     -39.24921830 Ry
     estimated scf accuracy    <       0.00238594 Ry

     iteration # 12     ecut=    60.00 Ry     beta= 0.50
     Davidson diagonalization with overlap
     ethr =  2.09E-06,  avg # of iterations =  2.0

     negative rho (up, down):  5.354E-03 0.000E+00

     total cpu time spent up to now is      272.7 secs

     total energy              =     -39.24935172 Ry
     estimated scf accuracy    <       0.00240905 Ry

     iteration # 13     ecut=    60.00 Ry     beta= 0.50
     Davidson diagonalization with overlap
     ethr =  2.09E-06,  avg # of iterations =  1.0

     negative rho (up, down):  5.345E-03 0.000E+00

     total cpu time spent up to now is      274.7 secs

     total energy              =     -39.24867207 Ry
     estimated scf accuracy    <       0.00200469 Ry

     iteration # 14     ecut=    60.00 Ry     beta= 0.50
     Davidson diagonalization with overlap
     ethr =  2.09E-06,  avg # of iterations =  3.0

     negative rho (up, down):  5.346E-03 0.000E+00

     total cpu time spent up to now is      276.9 secs

     total energy              =     -39.24707214 Ry
     estimated scf accuracy    <       0.03720843 Ry

     iteration # 15     ecut=    60.00 Ry     beta= 0.50
     Davidson diagonalization with overlap
     ethr =  2.09E-06,  avg # of iterations =  2.0

     negative rho (up, down):  5.343E-03 0.000E+00

     total cpu time spent up to now is      279.0 secs

     total energy              =     -39.24979862 Ry
     estimated scf accuracy    <       0.00308886 Ry

     iteration # 16     ecut=    60.00 Ry     beta= 0.50
     Davidson diagonalization with overlap
     ethr =  2.09E-06,  avg # of iterations =  2.0

     negative rho (up, down):  5.343E-03 0.000E+00

     total cpu time spent up to now is      281.1 secs

     total energy              =     -39.24808249 Ry
     estimated scf accuracy    <       0.02905353 Ry

     iteration # 17     ecut=    60.00 Ry     beta= 0.50
     Davidson diagonalization with overlap
     ethr =  2.09E-06,  avg # of iterations =  2.0

     negative rho (up, down):  5.342E-03 0.000E+00

     total cpu time spent up to now is      283.2 secs

     total energy              =     -39.24867982 Ry
     estimated scf accuracy    <       0.00576805 Ry

     iteration # 18     ecut=    60.00 Ry     beta= 0.50
     Davidson diagonalization with overlap
     ethr =  2.09E-06,  avg # of iterations =  1.0

     negative rho (up, down):  5.343E-03 0.000E+00

     total cpu time spent up to now is      285.1 secs

     total energy              =     -39.24804443 Ry
     estimated scf accuracy    <       0.00517912 Ry

     iteration # 19     ecut=    60.00 Ry     beta= 0.50
     Davidson diagonalization with overlap
     ethr =  2.09E-06,  avg # of iterations =  2.0

     negative rho (up, down):  5.343E-03 0.000E+00

     total cpu time spent up to now is      287.2 secs

     total energy              =     -39.24832526 Ry
     estimated scf accuracy    <       0.00059379 Ry

     iteration # 20     ecut=    60.00 Ry     beta= 0.50
     Davidson diagonalization with overlap
     ethr =  2.09E-06,  avg # of iterations =  1.0

     negative rho (up, down):  5.343E-03 0.000E+00

     total cpu time spent up to now is      289.1 secs

     total energy              =     -39.24839478 Ry
     estimated scf accuracy    <       0.00172184 Ry

     iteration # 21     ecut=    60.00 Ry     beta= 0.50
     Davidson diagonalization with overlap
     ethr =  2.09E-06,  avg # of iterations =  1.0

     negative rho (up, down):  5.344E-03 0.000E+00

     total cpu time spent up to now is      291.0 secs

     total energy              =     -39.24808287 Ry
     estimated scf accuracy    <       0.00220816 Ry

     iteration # 22     ecut=    60.00 Ry     beta= 0.50
     Davidson diagonalization with overlap
     ethr =  2.09E-06,  avg # of iterations =  1.0

     negative rho (up, down):  5.345E-03 0.000E+00

     total cpu time spent up to now is      293.0 secs

     total energy              =     -39.24814758 Ry
     estimated scf accuracy    <       0.00016291 Ry

     iteration # 23     ecut=    60.00 Ry     beta= 0.50
     Davidson diagonalization with overlap
     ethr =  1.81E-06,  avg # of iterations =  1.0

     negative rho (up, down):  5.345E-03 0.000E+00

     total cpu time spent up to now is      294.9 secs

     total energy              =     -39.24816547 Ry
     estimated scf accuracy    <       0.00000116 Ry

     iteration # 24     ecut=    60.00 Ry     beta= 0.50
     Davidson diagonalization with overlap
     ethr =  1.29E-08,  avg # of iterations =  2.0

     negative rho (up, down):  5.346E-03 0.000E+00

     total cpu time spent up to now is      296.9 secs

     total energy              =     -39.24816625 Ry
     estimated scf accuracy    <       0.00000355 Ry

     iteration # 25     ecut=    60.00 Ry     beta= 0.50
     Davidson diagonalization with overlap
     ethr =  1.29E-08,  avg # of iterations =  1.0

     negative rho (up, down):  5.346E-03 0.000E+00

     total cpu time spent up to now is      298.9 secs

     total energy              =     -39.24816683 Ry
     estimated scf accuracy    <       0.00000914 Ry

     iteration # 26     ecut=    60.00 Ry     beta= 0.50
     Davidson diagonalization with overlap
     ethr =  1.29E-08,  avg # of iterations =  1.0

     negative rho (up, down):  5.346E-03 0.000E+00

     total cpu time spent up to now is      300.8 secs

     total energy              =     -39.24816727 Ry
     estimated scf accuracy    <       0.00001259 Ry

     iteration # 27     ecut=    60.00 Ry     beta= 0.50
     Davidson diagonalization with overlap
     ethr =  1.29E-08,  avg # of iterations =  1.0

     negative rho (up, down):  5.347E-03 0.000E+00

     total cpu time spent up to now is      302.7 secs

     total energy              =     -39.24816478 Ry
     estimated scf accuracy    <       0.00001626 Ry

     iteration # 28     ecut=    60.00 Ry     beta= 0.50
     Davidson diagonalization with overlap
     ethr =  1.29E-08,  avg # of iterations =  2.0

     negative rho (up, down):  5.346E-03 0.000E+00

     total cpu time spent up to now is      304.8 secs

     total energy              =     -39.24816473 Ry
     estimated scf accuracy    <       0.00000252 Ry

     iteration # 29     ecut=    60.00 Ry     beta= 0.50
     Davidson diagonalization with overlap
     ethr =  1.29E-08,  avg # of iterations =  1.0

     negative rho (up, down):  5.346E-03 0.000E+00

     total cpu time spent up to now is      306.7 secs

     total energy              =     -39.24816497 Ry
     estimated scf accuracy    <       0.00000042 Ry

     iteration # 30     ecut=    60.00 Ry     beta= 0.50
     Davidson diagonalization with overlap
     ethr =  4.64E-09,  avg # of iterations =  2.0

     negative rho (up, down):  5.346E-03 0.000E+00

     total cpu time spent up to now is      308.7 secs

     total energy              =     -39.24816500 Ry
     estimated scf accuracy    <       0.00000077 Ry

     iteration # 31     ecut=    60.00 Ry     beta= 0.50
     Davidson diagonalization with overlap
     ethr =  4.64E-09,  avg # of iterations =  1.0

     negative rho (up, down):  5.346E-03 0.000E+00

     total cpu time spent up to now is      310.6 secs

     total energy              =     -39.24816510 Ry
     estimated scf accuracy    <       0.00000005 Ry

     iteration # 32     ecut=    60.00 Ry     beta= 0.50
     Davidson diagonalization with overlap
     ethr =  5.34E-10,  avg # of iterations =  1.0

     negative rho (up, down):  5.346E-03 0.000E+00

     total cpu time spent up to now is      312.6 secs

     total energy              =     -39.24816510 Ry
     estimated scf accuracy    <          4.5E-09 Ry

     iteration # 33     ecut=    60.00 Ry     beta= 0.50
     Davidson diagonalization with overlap
     ethr =  4.99E-11,  avg # of iterations =  2.0

     negative rho (up, down):  5.346E-03 0.000E+00

     total cpu time spent up to now is      314.6 secs

     total energy              =     -39.24816510 Ry
     estimated scf accuracy    <          3.4E-09 Ry

     iteration # 34     ecut=    60.00 Ry     beta= 0.50
     Davidson diagonalization with overlap
     ethr =  3.76E-11,  avg # of iterations =  1.0

     negative rho (up, down):  5.346E-03 0.000E+00

     total cpu time spent up to now is      316.4 secs

     End of self-consistent calculation

          k = 0.0000 0.0000 0.0000 ( 61161 PWs)   bands (ev):

   -23.4830 -11.6905  -9.3447  -9.3447  -9.0102  -1.2641  -1.2641  -0.3387
     0.4565

     the Fermi energy is    -9.0242 ev

!    total energy              =     -39.24816510 Ry
     estimated scf accuracy    <          2.2E-11 Ry
     smearing contrib. (-TS)   =       0.00523104 Ry
     internal energy E=F+TS    =     -39.25339613 Ry

     The total energy is F=E-TS. E is the sum of the following terms:
     one-electron contribution =     -65.05419073 Ry
     hartree contribution      =      33.61714433 Ry
     xc contribution           =      -8.69317696 Ry
     ewald contribution        =       8.87071596 Ry
     Dispersion Correction     =      -0.00000520 Ry
     one-center paw contrib.   =      -7.99388353 Ry

     convergence has been achieved in  34 iterations

     negative rho (up, down):  5.346E-03 0.000E+00

     Forces acting on atoms (cartesian axes, Ry/au):

     atom    1 type  1   force =     0.02450978    0.00000001    0.00000003
     atom    2 type  2   force =    -0.02450978   -0.00000001   -0.00000003

     Total force =     0.024510     Total SCF correction =     0.000003
     Energy error            =      1.2E-03 Ry
     Gradient error          =      2.5E-02 Ry/Bohr

     number of scf cycles    =   8
     number of bfgs steps    =   7

     energy             old  =     -39.2469286614 Ry
     energy             new  =     -39.2481650976 Ry

     CASE: energy            _new < energy            _old

     new trust radius        =       0.0069242556 bohr
     new conv_thr            =            1.2E-11 Ry


ATOMIC_POSITIONS (angstrom)
C             0.0000000000        0.0000000000        0.0000000000    0   0   0
N             1.1694565601        0.0000000000        0.0000000000    1   0   0



     Writing config-only to output data dir ./pwscf.save/
     NEW-OLD atomic charge density approx. for the potential

     Check: negative core charge=   -0.000001

     negative rho (up, down):  5.309E-03 0.000E+00

     total cpu time spent up to now is      318.9 secs

     Self-consistent Calculation

     iteration #  1     ecut=    60.00 Ry     beta= 0.50
     Davidson diagonalization with overlap
     ethr =  1.00E-06,  avg # of iterations =  3.0

     negative rho (up, down):  5.339E-03 0.000E+00

     total cpu time spent up to now is      321.1 secs

     total energy              =     -39.24824356 Ry
     estimated scf accuracy    <       0.00014553 Ry

     iteration #  2     ecut=    60.00 Ry     beta= 0.50
     Davidson diagonalization with overlap
     ethr =  1.62E-06,  avg # of iterations =  2.0

     negative rho (up, down):  5.337E-03 0.000E+00

     total cpu time spent up to now is      323.1 secs

     total energy              =     -39.24820430 Ry
     estimated scf accuracy    <       0.00064103 Ry

     iteration #  3     ecut=    60.00 Ry     beta= 0.50
     Davidson diagonalization with overlap
     ethr =  1.62E-06,  avg # of iterations =  1.0

     negative rho (up, down):  5.346E-03 0.000E+00

     total cpu time spent up to now is      325.0 secs

     total energy              =     -39.24828080 Ry
     estimated scf accuracy    <       0.00009942 Ry

     iteration #  4     ecut=    60.00 Ry     beta= 0.50
     Davidson diagonalization with overlap
     ethr =  1.10E-06,  avg # of iterations =  1.0

     negative rho (up, down):  5.352E-03 0.000E+00

     total cpu time spent up to now is      326.9 secs

     total energy              =     -39.24829009 Ry
     estimated scf accuracy    <       0.00000017 Ry

     iteration #  5     ecut=    60.00 Ry     beta= 0.50
     Davidson diagonalization with overlap
     ethr =  1.94E-09,  avg # of iterations =  3.0

     negative rho (up, down):  5.357E-03 0.000E+00

     total cpu time spent up to now is      329.0 secs

     total energy              =     -39.24829013 Ry
     estimated scf accuracy    <       0.00000003 Ry

     iteration #  6     ecut=    60.00 Ry     beta= 0.50
     Davidson diagonalization with overlap
     ethr =  2.95E-10,  avg # of iterations =  1.0

     negative rho (up, down):  5.358E-03 0.000E+00

     total cpu time spent up to now is      330.9 secs

     total energy              =     -39.24829013 Ry
     estimated scf accuracy    <          5.3E-09 Ry

     iteration #  7     ecut=    60.00 Ry     beta= 0.50
     Davidson diagonalization with overlap
     ethr =  5.91E-11,  avg # of iterations =  1.0

     negative rho (up, down):  5.358E-03 0.000E+00

     total cpu time spent up to now is      332.9 secs

     total energy              =     -39.24829013 Ry
     estimated scf accuracy    <          2.2E-10 Ry

     iteration #  8     ecut=    60.00 Ry     beta= 0.50
     Davidson diagonalization with overlap
     ethr =  2.48E-12,  avg # of iterations =  2.0

     negative rho (up, down):  5.358E-03 0.000E+00

     total cpu time spent up to now is      334.9 secs

     total energy              =     -39.24829013 Ry
     estimated scf accuracy    <          4.4E-11 Ry

     iteration #  9     ecut=    60.00 Ry     beta= 0.50
     Davidson diagonalization with overlap
     ethr =  4.93E-13,  avg # of iterations =  1.0

     negative rho (up, down):  5.358E-03 0.000E+00

     total cpu time spent up to now is      336.7 secs

     End of self-consistent calculation

          k = 0.0000 0.0000 0.0000 ( 61161 PWs)   bands (ev):

   -23.5050 -11.6734  -9.3560  -9.3560  -9.0147  -1.2282  -1.2282  -0.3382
     0.4568

     the Fermi energy is    -9.0307 ev

!    total energy              =     -39.24829013 Ry
     estimated scf accuracy    <          7.3E-12 Ry
     smearing contrib. (-TS)   =       0.00548155 Ry
     internal energy E=F+TS    =     -39.25377167 Ry

     The total energy is F=E-TS. E is the sum of the following terms:
     one-electron contribution =     -65.15795029 Ry
     hartree contribution      =      33.67112625 Ry
     xc contribution           =      -8.70009750 Ry
     ewald contribution        =       8.92708126 Ry
     Dispersion Correction     =      -0.00000518 Ry
     one-center paw contrib.   =      -7.99392621 Ry

     convergence has been achieved in   9 iterations

     negative rho (up, down):  5.358E-03 0.000E+00

     Forces acting on atoms (cartesian axes, Ry/au):

     atom    1 type  1   force =     0.01165483    0.00000000    0.00000003
     atom    2 type  2   force =    -0.01165483   -0.00000000   -0.00000003

     Total force =     0.011655     Total SCF correction =     0.000004
     Energy error            =      1.3E-04 Ry
     Gradient error          =      1.2E-02 Ry/Bohr

     number of scf cycles    =   9
     number of bfgs steps    =   8

     energy             old  =     -39.2481650976 Ry
     energy             new  =     -39.2482901274 Ry

     CASE: energy            _new < energy            _old

     new trust radius        =       0.0062778192 bohr
     new conv_thr            =            1.3E-12 Ry


ATOMIC_POSITIONS (angstrom)
C             0.0000000000        0.0000000000        0.0000000000    0   0   0
N             1.1661344813        0.0000000000        0.0000000000    1   0   0



     Writing config-only to output data dir ./pwscf.save/
     NEW-OLD atomic charge density approx. for the potential

     Check: negative core charge=   -0.000001

     negative rho (up, down):  5.325E-03 0.000E+00

     total cpu time spent up to now is      339.2 secs

     Self-consistent Calculation

     iteration #  1     ecut=    60.00 Ry     beta= 0.50
     Davidson diagonalization with overlap
     ethr =  1.00E-06,  avg # of iterations =  3.0

     negative rho (up, down):  5.352E-03 0.000E+00

     total cpu time spent up to now is      341.4 secs

     total energy              =     -39.24829120 Ry
     estimated scf accuracy    <       0.00010992 Ry

     iteration #  2     ecut=    60.00 Ry     beta= 0.50
     Davidson diagonalization with overlap
     ethr =  1.22E-06,  avg # of iterations =  2.0

     negative rho (up, down):  5.350E-03 0.000E+00

     total cpu time spent up to now is      343.5 secs

     total energy              =     -39.24826411 Ry
     estimated scf accuracy    <       0.00043356 Ry

     iteration #  3     ecut=    60.00 Ry     beta= 0.50
     Davidson diagonalization with overlap
     ethr =  1.22E-06,  avg # of iterations =  1.0

     negative rho (up, down):  5.358E-03 0.000E+00

     total cpu time spent up to now is      345.3 secs

     total energy              =     -39.24831786 Ry
     estimated scf accuracy    <       0.00008135 Ry

     iteration #  4     ecut=    60.00 Ry     beta= 0.50
     Davidson diagonalization with overlap
     ethr =  9.04E-07,  avg # of iterations =  1.0

     negative rho (up, down):  5.364E-03 0.000E+00

     total cpu time spent up to now is      347.2 secs

     total energy              =     -39.24832537 Ry
     estimated scf accuracy    <       0.00000013 Ry

     iteration #  5     ecut=    60.00 Ry     beta= 0.50
     Davidson diagonalization with overlap
     ethr =  1.48E-09,  avg # of iterations =  3.0

     negative rho (up, down):  5.369E-03 0.000E+00

     total cpu time spent up to now is      349.4 secs

     total energy              =     -39.24832540 Ry
     estimated scf accuracy    <       0.00000002 Ry

     iteration #  6     ecut=    60.00 Ry     beta= 0.50
     Davidson diagonalization with overlap
     ethr =  2.31E-10,  avg # of iterations =  1.0

     negative rho (up, down):  5.369E-03 0.000E+00

     total cpu time spent up to now is      351.3 secs

     total energy              =     -39.24832540 Ry
     estimated scf accuracy    <          3.6E-09 Ry

     iteration #  7     ecut=    60.00 Ry     beta= 0.50
     Davidson diagonalization with overlap
     ethr =  4.04E-11,  avg # of iterations =  1.0

     negative rho (up, down):  5.370E-03 0.000E+00

     total cpu time spent up to now is      353.2 secs

     total energy              =     -39.24832540 Ry
     estimated scf accuracy    <          1.6E-10 Ry

     iteration #  8     ecut=    60.00 Ry     beta= 0.50
     Davidson diagonalization with overlap
     ethr =  1.72E-12,  avg # of iterations =  2.0

     negative rho (up, down):  5.370E-03 0.000E+00

     total cpu time spent up to now is      355.3 secs

     total energy              =     -39.24832540 Ry
     estimated scf accuracy    <          3.5E-11 Ry

     iteration #  9     ecut=    60.00 Ry     beta= 0.50
     Davidson diagonalization with overlap
     ethr =  3.88E-13,  avg # of iterations =  1.0

     negative rho (up, down):  5.370E-03 0.000E+00

     total cpu time spent up to now is      357.2 secs

     total energy              =     -39.24832540 Ry
     estimated scf accuracy    <          6.4E-12 Ry

     iteration # 10     ecut=    60.00 Ry     beta= 0.50
     Davidson diagonalization with overlap
     ethr =  1.00E-13,  avg # of iterations =  1.0

     negative rho (up, down):  5.370E-03 0.000E+00

     total cpu time spent up to now is      359.0 secs

     End of self-consistent calculation

          k = 0.0000 0.0000 0.0000 ( 61161 PWs)   bands (ev):

   -23.5250 -11.6578  -9.3664  -9.3664  -9.0185  -1.1956  -1.1956  -0.3378
     0.4571

     the Fermi energy is    -9.0364 ev

!    total energy              =     -39.24832540 Ry
     estimated scf accuracy    <          2.5E-13 Ry
     smearing contrib. (-TS)   =       0.00570829 Ry
     internal energy E=F+TS    =     -39.25403369 Ry

     The total energy is F=E-TS. E is the sum of the following terms:
     one-electron contribution =     -65.25241846 Ry
     hartree contribution      =      33.72029783 Ry
     xc contribution           =      -8.70643095 Ry
     ewald contribution        =       8.97849195 Ry
     Dispersion Correction     =      -0.00000517 Ry
     one-center paw contrib.   =      -7.99396889 Ry

     convergence has been achieved in  10 iterations

     negative rho (up, down):  5.370E-03 0.000E+00

     Forces acting on atoms (cartesian axes, Ry/au):

     atom    1 type  1   force =    -0.00032663   -0.00000000   -0.00000000
     atom    2 type  2   force =     0.00032663    0.00000000    0.00000000

     Total force =     0.000327     Total SCF correction =     0.000001
     Energy error            =      3.5E-05 Ry
     Gradient error          =      3.3E-04 Ry/Bohr

     bfgs converged in  10 scf cycles and   9 bfgs steps
     (criteria: energy <  1.0E-04 Ry, force <  1.0E-03 Ry/Bohr)

     End of BFGS Geometry Optimization

     Final energy             =     -39.2483254009 Ry

     File ./pwscf.bfgs deleted, as requested
Begin final coordinates

ATOMIC_POSITIONS (angstrom)
C             0.0000000000        0.0000000000        0.0000000000    0   0   0
N             1.1661344813        0.0000000000        0.0000000000    1   0   0
End final coordinates



     Writing all to output data dir ./pwscf.save/

     init_run     :      2.84s CPU      2.71s WALL (       1 calls)
     electrons    :    634.82s CPU    335.57s WALL (      10 calls)
     update_pot   :      6.67s CPU      7.40s WALL (       9 calls)
     forces       :     17.33s CPU     11.00s WALL (      10 calls)
     force_london :      0.00s CPU      0.00s WALL (      10 calls)

     Called by init_run:
     wfcinit      :      0.91s CPU      0.68s WALL (       1 calls)
     potinit      :      0.58s CPU      0.67s WALL (       1 calls)
     hinit0       :      0.92s CPU      0.97s WALL (       1 calls)

     Called by electrons:
     c_bands      :    271.03s CPU    122.95s WALL (     161 calls)
     sum_band     :    217.66s CPU     79.07s WALL (     161 calls)
     v_of_rho     :     73.50s CPU     79.04s WALL (     171 calls)
     newd         :     50.55s CPU     38.92s WALL (     171 calls)
     PAW_pot      :      4.74s CPU      3.66s WALL (     180 calls)
     mix_rho      :     19.32s CPU     16.62s WALL (     161 calls)
     energy_londo :      0.06s CPU      0.01s WALL (      10 calls)

     Called by c_bands:
     init_us_2    :     16.55s CPU      4.01s WALL (     332 calls)
     init_us_2:cp :     16.54s CPU      4.01s WALL (     332 calls)
     regterg      :    254.62s CPU    118.95s WALL (     161 calls)

     Called by *egterg:
     rdiaghg      :      0.39s CPU      0.07s WALL (     498 calls)
     h_psi        :    207.06s CPU    110.89s WALL (     508 calls)
     s_psi        :      2.22s CPU      0.37s WALL (     508 calls)
     g_psi        :      3.68s CPU      0.85s WALL (     346 calls)

     Called by h_psi:
     h_psi:calbec :      7.76s CPU      1.46s WALL (     508 calls)
     vloc_psi     :    194.53s CPU    108.47s WALL (     508 calls)
     add_vuspsi   :      2.38s CPU      0.40s WALL (     508 calls)

     General routines
     calbec       :     12.29s CPU      2.27s WALL (     718 calls)
     fft          :     55.48s CPU     50.72s WALL (    1638 calls)
     ffts         :     44.89s CPU     10.79s WALL (     161 calls)
     fftw         :    220.04s CPU    117.87s WALL (    4815 calls)

     Parallel routines

     PWSCF        :  11m 7.88s CPU   6m 0.39s WALL


   This run was terminated on:  14:54:16   5Sep2022            

=------------------------------------------------------------------------------=
   JOB DONE.
=------------------------------------------------------------------------------=
