40
Lattice="7.77345020413335 0.0 0.0 0.0 8.037141181957962 0.0 0.0 0.06848409629841481 8.036838017400001" Properties=species:S:1:pos:R:3:forces:R:3 energy=-29615.075045239035 pbc="T T T"
Ba       3.90123036       0.13396764       8.02872953      -0.01778406      -0.22361167      -0.10579164
Ba       3.87825049       0.05835063       4.01542001       0.04901063       0.11108374      -0.05085102
Ba       3.88220018       4.05428027       0.00212759       0.18164047       0.00436008      -0.27661959
Ba       3.86373979       4.07895009       3.99807978       0.20534964       0.04347067       0.17126658
Ba       0.00873036       0.12886670       8.02188112       0.00341031      -0.26996069      -0.02343895
Ba       7.75912995       0.06117861       3.99750998       0.20647372       0.01524150      -0.03002097
Ba       0.00144975       4.06557043       0.01162131      -0.02495590       0.01200988      -0.20849641
Ba       7.74926622       4.10588043       4.00892996       0.22716828      -0.04697971      -0.00722943
Ti       1.95243028       2.14688003       2.04345039      -0.08341019      -0.52217331      -0.12731691
Ti       1.91425020       2.12886972       6.06698044       0.52843420       0.19241879       0.05825786
Ti       1.94607004       6.15453048       2.04565027      -0.10324470      -0.12206621       0.06024069
Ti       1.94553989       6.17001985       6.08354022       0.11433104      -0.06445447      -0.15279938
Ti       5.84590041       2.11760988       2.04187004      -0.07081898       0.10397207       0.11480181
Ti       5.83860036       2.14715987       6.05982031      -0.41242860       0.24951039      -0.11325967
Ti       5.83034029       6.15982031       2.04468015       0.07300287      -0.31499176      -0.15875174
Ti       5.83913051       6.17473989       6.06197978      -0.15886435      -0.36628681       0.30190922
O        1.93391004       2.02894979       3.88722027      -0.00362526      -0.02727786       0.28611313
O        1.96907013       2.02930038       7.93148056      -0.13299314       0.21653291      -0.06932645
O        1.96671011       6.05991049       3.92438980      -0.01654659      -0.05013831      -0.09582939
O        1.93849015       6.05834025       7.93594019       0.14960658       0.15014754       0.10171156
O        5.81201049       2.04852023       3.91200048       0.25850488      -0.16984373      -0.12868551
O        5.85445042       2.05566014       7.91500007      -0.10673909       0.02243570       0.20580524
O        5.83061003       6.04643987       3.92386043       0.06251920       0.06814452      -0.07280850
O        5.85451028       6.07896010       7.94585989      -0.00565874       0.02085190      -0.02174073
O        1.96320040       3.97639030       1.93278988       0.02245062       0.32424362       0.07202328
O        1.91352028       3.99958005       5.98986004       0.07535929       0.03750057      -0.14128700
O        1.92405019       7.98047040       1.92664030       0.14447466       0.16980259       0.10901760
O        2.00129030       8.04718992       5.98815999      -0.12164095      -0.24655388      -0.10788837
O        5.86223009       3.97664993       1.94330036      -0.26913845      -0.06593851       0.02653044
O        5.88424994       4.00876982       5.97561986      -0.00137297      -0.10221215      -0.04604743
O        5.85930028       8.00873000       1.94128004      -0.01255881       0.14211696       0.10689233
O        5.83280992       8.00979030       5.98740052      -0.04644878       0.41660587      -0.19836909
O        7.77319446       2.00523999       1.87875041      -0.06612517      -0.05657944       0.24429105
O        0.03313511       1.95718996       5.90986035      -0.33734236       0.15530980       0.08686935
O        0.02994722       6.00302982       1.93829037      -0.16284313       0.00073431       0.02465071
O        0.01850003       6.07656044       5.94724054       0.09331433      -0.06125345      -0.09053317
O        3.86695022       1.95506004       1.91919023       0.44120516       0.18857011      -0.02095938
O        3.91631008       2.04054001       5.91016041      -0.07227602      -0.02438691       0.13251054
O        3.93054015       6.02787998       1.90629019      -0.37682551      -0.05104874       0.08989785
O        3.91141047       5.99073999       5.94634038      -0.23261336       0.14069411       0.05526149
40
Lattice="7.955584598 0.0 0.0 0.0 7.955584598 0.0 0.0 0.0 7.955584598" Properties=species:S:1:pos:R:3:forces:R:3 energy=-29615.216246470478 stress="0.00019373125680708432 -0.0 -0.0 -0.0 0.00019373125680708432 -0.0 -0.0 -0.0 0.00019373125680708432" pbc="T T T"
Ba       1.98910859       1.98910859       1.98910859      -0.00453491      -0.00453491      -0.00453491
Ba       5.96647601       5.96647601       1.98910859       0.00453491       0.00453491      -0.00453491
Ba       5.96647601       1.98910859       5.96647601       0.00453491      -0.00453491       0.00453491
Ba       1.98910859       5.96647601       5.96647601      -0.00453491       0.00453491       0.00453491
Ba       5.96635125       1.98923335       1.98923335       0.00529442      -0.00529442      -0.00529442
Ba       1.98923335       5.96635125       1.98923335      -0.00529442       0.00529442      -0.00529442
Ba       1.98923335       1.98923335       5.96635125      -0.00529442      -0.00529442       0.00529442
Ba       5.96635125       5.96635125       5.96635125       0.00529442       0.00529442       0.00529442
Ti       3.97779230       3.97779230       3.97779230       0.00000000       0.00000000       0.00000000
Ti       0.00000000       3.97779230       0.00000000       0.00000000       0.00000000       0.00000000
Ti       3.97779230       0.00000000       0.00000000       0.00000000       0.00000000       0.00000000
Ti       0.00000000       0.00000000       3.97779230       0.00000000       0.00000000       0.00000000
Ti       3.97779230       0.00000000       3.97779230       0.00000000       0.00000000       0.00000000
Ti       0.00000000       3.97779230       3.97779230       0.00000000       0.00000000       0.00000000
Ti       3.97779230       3.97779230       0.00000000       0.00000000       0.00000000       0.00000000
Ti       0.00000000       0.00000000       0.00000000       0.00000000       0.00000000       0.00000000
O        3.97779230       3.97779230       1.98869460       0.00000000       0.00000000       0.00684659
O        3.97779230       3.97779230       5.96688999       0.00000000       0.00000000      -0.00684659
O        3.97779230       1.98869460       3.97779230       0.00000000       0.00684659       0.00000000
O        3.97779230       5.96688999       3.97779230       0.00000000      -0.00684659       0.00000000
O        1.98869460       3.97779230       3.97779230       0.00684659       0.00000000       0.00000000
O        5.96688999       3.97779230       3.97779230      -0.00684659       0.00000000       0.00000000
O        0.00000000       3.97779230       1.98890518       0.00000000       0.00000000       0.00369133
O        0.00000000       3.97779230       5.96667941       0.00000000       0.00000000      -0.00369133
O        3.97779230       1.98890518       0.00000000       0.00000000       0.00369133       0.00000000
O        3.97779230       5.96667941       0.00000000       0.00000000      -0.00369133       0.00000000
O        1.98890518       0.00000000       3.97779230       0.00369133       0.00000000       0.00000000
O        5.96667941       0.00000000       3.97779230      -0.00369133       0.00000000       0.00000000
O        3.97779230       0.00000000       1.98857966       0.00000000       0.00000000       0.00661313
O        3.97779230       0.00000000       5.96700494       0.00000000       0.00000000      -0.00661313
O        0.00000000       1.98857966       3.97779230       0.00000000       0.00661313       0.00000000
O        0.00000000       5.96700494       3.97779230       0.00000000      -0.00661313       0.00000000
O        1.98857966       3.97779230       0.00000000       0.00661313       0.00000000       0.00000000
O        5.96700494       3.97779230       0.00000000      -0.00661313       0.00000000       0.00000000
O        0.00000000       0.00000000       1.98860299       0.00000000       0.00000000       0.00956270
O        0.00000000       0.00000000       5.96698161       0.00000000       0.00000000      -0.00956270
O        0.00000000       1.98860299       0.00000000       0.00000000       0.00956270       0.00000000
O        0.00000000       5.96698161       0.00000000       0.00000000      -0.00956270       0.00000000
O        1.98860299       0.00000000       0.00000000       0.00956270       0.00000000       0.00000000
O        5.96698161       0.00000000       0.00000000      -0.00956270       0.00000000       0.00000000
40
Lattice="7.95538979520063 0.0 0.0 0.0 7.95538979520063 0.0 0.0 0.0 7.95538979520063" Properties=species:S:1:pos:R:3:forces:R:3 energy=-29609.225180711834 pbc="T T T"
Ba       3.90274001       3.87650950       0.04940377       1.09319681       0.56385809       0.77253140
Ba       4.01421014       0.06290486       4.07315958       0.10864608       0.07043563      -1.69571118
Ba       0.05466785       4.14643985       3.74971013      -1.36227021      -3.20748179       3.17479921
Ba       7.95281782       7.86557901       4.05011997      -0.39018085       1.02442906      -1.07559195
Ba       0.11002861       3.95406023       7.90043794      -2.12268914       0.96044150      -0.30817937
Ba       3.98534957       7.87381523       0.10365316       0.11622466       0.28661938       0.09640840
Ba       3.95924953       4.03140014       4.03240014       1.00120351      -0.26539107      -1.21066897
Ba       7.87556382       0.00847885       0.03499496       1.03548789       0.38240480      -0.77018475
Ti       6.05777953       1.94806017       2.04934978      -0.03007522       0.40083421      -0.71273679
Ti       2.01594987       5.94940962       1.79505018       0.43775345       1.36620092       1.31604949
Ti       1.93725993       1.96392958       6.06845964      -0.82892186       0.22021884      -0.17354046
Ti       5.91852998       6.08925026       5.89348959       1.02192635      -1.87794480      -1.05901888
Ti       2.04908009       5.88301950       5.78728991      -0.57423661       1.25287569       0.37304367
Ti       5.84057989       2.06346025       6.15168018       2.12017332       0.36029923       0.37252559
Ti       6.11619993       5.91879967       1.81245975      -2.21903995       0.04654005       1.53757368
Ti       1.98302967       2.05164968       2.10963970      -0.18423034      -1.15552010      -0.54932725
O        1.86377997       2.02591002       3.93784953       0.48743411       1.15553501       0.28096013
O        6.04071999       1.86895018       3.82613995      -1.23061148       0.55256349       2.64474624
O        2.00842964       5.79753009       3.92231982       0.52055429       0.77673489       0.84118679
O        5.90525959       6.02863973       3.93949948       0.09358507      -0.40534110       0.48016920
O        1.94732986       3.94591948       1.88579969       0.62813207       0.45389792       0.29158418
O        2.30291033       4.15457981       6.11055956      -1.41974285      -0.97930311      -1.13612318
O        5.83705008       3.88895968       1.73320020       1.24998217       0.21585054       1.44305659
O        5.69346007       4.06611985       5.98950956       0.45207475      -2.17883612       0.11155888
O        3.82519008       1.85111022       1.93171025       0.13074548       0.45225525       0.24094759
O        4.16327982       5.92805019       2.05548020      -1.68631946       0.23873644      -0.99455233
O        3.90402003       1.89586963       6.23232953       0.51274713       0.16390140      -1.01943315
O        3.91780991       6.28043975       5.86827021      -0.71082261      -0.89285620       0.85659670
O        6.05585989       5.85183995       7.95340095      -0.14302378       0.92323249      -0.46976703
O        1.81275967       6.17259012       7.91189768       0.86183661      -1.06910763      -0.17545362
O        5.97964010       1.82818994       0.10020529      -0.98387762       0.87316412      -2.99225500
O        1.72185979       2.24787017       7.92252767       1.72021894      -2.41112707      -0.51523750
O        6.09497018       7.86337378       5.99399958      -1.22138250       2.07128353       0.22222045
O        6.22723013       0.00233172       1.84495990      -1.40786256      -1.82954610       0.65166898
O        1.95520967       0.26902105       5.63334994      -0.06710296      -1.99173772       1.71440028
O        1.99805024       7.85667932       1.96141010      -0.29559150      -0.22946916       0.28862124
O        7.82068516       5.93915989       5.75546994       1.90012108      -0.59359907       1.03936717
O        7.78882303       1.94634976       6.08608003       0.29770495       0.95905722      -0.63748240
O        0.09291895       5.72186001       2.19581010      -0.43484554       2.56289491      -3.09333535
O        7.88909992       1.91589016       1.99305028       1.52307858       0.75299538      -0.16141617
40
Lattice="7.955037176 1e-09 1e-09 1e-09 7.955037176 1e-09 1e-09 1e-09 7.955037176" Properties=species:S:1:pos:R:3:forces:R:3 energy=-29615.21656198647 stress="-4.1317092683975326e-05 -0.0 -0.0 -0.0 -4.1317092683975326e-05 -0.0 -0.0 -0.0 -4.1317092683975326e-05" pbc="T T T"
Ba       1.98875929       1.98875929       5.96627788      -0.00000026      -0.00000026       0.00000026
Ba       1.98875929       5.96627788       1.98875929      -0.00000026       0.00000026      -0.00000026
Ba       5.96627788       1.98875929       1.98875929       0.00000026      -0.00000026      -0.00000026
Ba       5.96627788       5.96627788       1.98875930       0.00000026       0.00000026      -0.00000026
Ba       5.96627788       1.98875930       5.96627788       0.00000026      -0.00000026       0.00000026
Ba       1.98875930       5.96627788       5.96627788      -0.00000026       0.00000026       0.00000026
Ba       1.98875929       1.98875929       1.98875929      -0.00000026      -0.00000026      -0.00000026
Ba       5.96627788       5.96627788       5.96627788       0.00000026       0.00000026       0.00000026
Ti       0.00000000       3.97751859       0.00000000       0.00000000       0.00000000       0.00000000
Ti       3.97751859       0.00000000       0.00000000       0.00000000       0.00000000       0.00000000
Ti       3.97751859       3.97751859       3.97751859       0.00000000       0.00000000       0.00000000
Ti       0.00000000       0.00000000       3.97751859       0.00000000       0.00000000       0.00000000
Ti       0.00000000       3.97751859       3.97751859       0.00000000       0.00000000       0.00000000
Ti       3.97751859       0.00000000       3.97751859       0.00000000       0.00000000       0.00000000
Ti       3.97751859       3.97751859       0.00000000       0.00000000       0.00000000       0.00000000
Ti       0.00000000       0.00000000       0.00000000       0.00000000       0.00000000       0.00000000
O        3.97614721       3.97909298       1.98877753       0.00240347      -0.00497123      -0.00059701
O        0.00137138       3.97909298       1.98874087      -0.00240347      -0.00497123       0.00059984
O        3.97614721      -0.00157440       1.98874113       0.00240347       0.00497123       0.00059778
O        0.00137138      -0.00157439       1.98877754      -0.00240347       0.00497123      -0.00059675
O        3.97909298       1.98877753       3.97614721      -0.00497123      -0.00059701       0.00240347
O        3.97909298       1.98874087       0.00137138      -0.00497123       0.00059984      -0.00240347
O       -0.00157440       1.98874113       3.97614721       0.00497123       0.00059778       0.00240347
O       -0.00157439       1.98877754       0.00137138       0.00497123      -0.00059675      -0.00240347
O        1.98877753       3.97614721       3.97909298      -0.00059701       0.00240347      -0.00497123
O        1.98874087       0.00137138       3.97909298       0.00059984      -0.00240347      -0.00497123
O        1.98874113       3.97614721      -0.00157440       0.00059778       0.00240347       0.00497123
O        1.98877754       0.00137138      -0.00157439      -0.00059675      -0.00240347       0.00497123
O        3.97888997       3.97594419       5.96625965      -0.00240347       0.00497123       0.00059701
O       -0.00137137       3.97594420       5.96629631       0.00240347       0.00497123      -0.00059984
O        3.97888997       0.00157440       5.96629605      -0.00240347      -0.00497123      -0.00059778
O       -0.00137137       0.00157439       5.96625963       0.00240347      -0.00497123       0.00059675
O        3.97594419       5.96625965       3.97888997       0.00497123       0.00059701      -0.00240347
O        3.97594420       5.96629631      -0.00137137       0.00497123      -0.00059984       0.00240347
O        0.00157440       5.96629605       3.97888997      -0.00497123      -0.00059778      -0.00240347
O        0.00157439       5.96625963      -0.00137137      -0.00497123       0.00059675       0.00240347
O        5.96625965       3.97888997       3.97594419       0.00059701      -0.00240347       0.00497123
O        5.96629631      -0.00137137       3.97594420      -0.00059984       0.00240347       0.00497123
O        5.96629605       3.97888997       0.00157440      -0.00059778      -0.00240347      -0.00497123
O        5.96625963      -0.00137137       0.00157439       0.00059675       0.00240347      -0.00497123
40
Lattice="7.95934396 0.0 0.0 0.0 7.95934396 0.0 0.0 0.0 7.95934396" Properties=species:S:1:pos:R:3:forces:R:3 energy=-29614.708052107682 stress="0.000768497923921941 -0.0 -0.0 -0.0 0.000768497923921941 -0.0 -0.0 -0.0 0.000768497923921941" pbc="T T T"
Ba      -1.98983599      -1.98983599       1.98983599      -0.00000103      -0.00000103       0.00000103
Ba       1.98983599      -1.98983599      -1.98983599       0.00000103      -0.00000103      -0.00000103
Ba      -1.98983599       1.98983599      -1.98983599      -0.00000103       0.00000103      -0.00000103
Ba       1.98983599       1.98983599       1.98983599       0.00000103       0.00000103       0.00000103
Ba       1.98983599       1.98983599      -1.98983599       0.00000103       0.00000103      -0.00000103
Ba      -1.98983599       1.98983599       1.98983599      -0.00000103       0.00000103       0.00000103
Ba       1.98983599      -1.98983599       1.98983599       0.00000103      -0.00000103       0.00000103
Ba      -1.98983599      -1.98983599      -1.98983599      -0.00000103      -0.00000103      -0.00000103
Ti       0.00000000       3.97967198       0.00000000       0.00000000       0.00000000       0.00000000
Ti       0.00000000       0.00000000       3.97967198       0.00000000       0.00000000       0.00000000
Ti       3.97967198       0.00000000       0.00000000       0.00000000       0.00000000       0.00000000
Ti       3.97967198       3.97967198       3.97967198       0.00000000       0.00000000       0.00000000
Ti       3.97967198       0.00000000       3.97967198       0.00000000       0.00000000       0.00000000
Ti       3.97967198       3.97967198       0.00000000       0.00000000       0.00000000       0.00000000
Ti       0.00000000       3.97967198       3.97967198       0.00000000       0.00000000       0.00000000
Ti       0.00000000       0.00000000       0.00000000       0.00000000       0.00000000       0.00000000
O        3.97967198       0.07644721       1.98983599       0.00000000      -0.55212821       0.00000000
O        0.00000000       4.05611919      -1.98983599       0.00000000      -0.55212821      -0.00000026
O        0.00000000      -0.07644721       1.98983599       0.00000000       0.55212821       0.00000051
O        3.97967198       3.90322478      -1.98983599       0.00000000       0.55212821      -0.00000026
O        0.07644721       1.98983599       3.97967198      -0.55212821       0.00000000       0.00000000
O        4.05611919      -1.98983599       0.00000000      -0.55212821      -0.00000026       0.00000000
O       -0.07644721       1.98983599       0.00000000       0.55212821       0.00000051       0.00000000
O        3.90322478      -1.98983599       3.97967198       0.55212821      -0.00000026       0.00000000
O        1.98983599       3.97967198       0.07644721       0.00000000       0.00000000      -0.55212821
O       -1.98983599       0.00000000       4.05611919      -0.00000026       0.00000000      -0.55212821
O        1.98983599       0.00000000      -0.07644721       0.00000051       0.00000000       0.55212821
O       -1.98983599       3.97967198       3.90322478      -0.00000026       0.00000000       0.55212821
O        0.00000000       3.90322477       1.98983599       0.00000000       0.55212821       0.00000026
O        3.97967198      -0.07644721      -1.98983599       0.00000000       0.55212821       0.00000000
O        3.97967198       4.05611918       1.98983599       0.00000000      -0.55212821       0.00000026
O        0.00000000       0.07644721      -1.98983599       0.00000000      -0.55212821      -0.00000051
O        3.90322477       1.98983599       0.00000000       0.55212821       0.00000026       0.00000000
O       -0.07644721      -1.98983599       3.97967198       0.55212821       0.00000000       0.00000000
O        4.05611918       1.98983599       3.97967198      -0.55212821       0.00000026       0.00000000
O        0.07644721      -1.98983599       0.00000000      -0.55212821      -0.00000051       0.00000000
O        1.98983599       0.00000000       3.90322477       0.00000026       0.00000000       0.55212821
O       -1.98983599       3.97967198      -0.07644721       0.00000000       0.00000000       0.55212821
O        1.98983599       3.97967198       4.05611918       0.00000026       0.00000000      -0.55212821
O       -1.98983599       0.00000000       0.07644721      -0.00000051       0.00000000      -0.55212821
40
Lattice="7.826749990913134 0.0 0.0 0.0 7.826749990913134 0.0 0.0 0.0 8.21019029971796" Properties=species:S:1:pos:R:3:forces:R:3 energy=-29615.047884604395 pbc="T T T"
Ba       1.97329977       1.92648016       0.00797546      -0.09235145       0.23208166       0.08234601
Ba       1.95346992       1.96850980       4.10350006       0.01787739      -0.09874990      -0.03598156
Ba       1.95072038       5.88186993       8.20279089       0.02469519      -0.08881927       0.15627859
Ba       1.95622024       5.85875988       4.12412981      -0.01952161       0.09385941      -0.13511636
Ba       5.85924984       1.96670026       0.00432506       0.05907135      -0.15285723       0.10860443
Ba       5.85466962       1.97915027       4.12501971       0.12521658      -0.29134918      -0.16519312
Ba       5.87727015       5.86059995       0.00408243      -0.04699977       0.19464125       0.08025364
Ba       5.87625032       5.86081988       4.14212977      -0.02321809       0.13354156      -0.19097974
Ti       0.01725720       7.78907123       2.15724014      -0.19709845       0.36417954      -0.43622313
Ti       7.80490162       0.02256217       6.24176033       0.02629699      -0.28398400      -0.33198495
Ti       0.00953063       3.89065003       2.13530019       0.02955586      -0.16228855       0.01956867
Ti       7.81695012       3.90743997       6.26327998       0.00184965       0.19297826      -0.81713438
Ti       3.92739975       0.00556638       2.12119013       0.02216085      -0.12123934      -0.03485773
Ti       3.88982978       7.81688985       6.23724038       0.15124206       0.12566627      -0.16432717
Ti       3.93083961       3.92413991       2.14996987      -0.12074389       0.04052573      -0.40602604
Ti       3.89338000       3.91473998       6.24398000       0.14033364      -0.11259632      -0.38261769
O        0.01843982       1.97346022       1.96818969      -0.07107532       0.05487248      -0.01738709
O        1.97583016       0.02672992       1.91906979      -0.09072112      -0.03826367       0.18410590
O        0.00637019       7.81414031       3.96004982       0.05538516       0.13833152       0.38868626
O        0.01086353       1.95052002       6.05081033      -0.07304273       0.05998641       0.12723824
O        1.95680020       0.01807197       6.04122021      -0.07924500      -0.09557973       0.18810756
O        7.81357992       0.00212027       8.05423996       0.09456749       0.00643804       0.04784797
O        0.01887029       5.88896018       1.98917008      -0.01798127      -0.21244845      -0.21111765
O        1.95270994       3.91660979       1.96491028       0.16645322       0.06303548      -0.00806889
O        7.79784346       3.91597974       3.95487008       0.13842459      -0.03102036       0.03149833
O        7.82674060       5.87275020       6.04258989      -0.06170956      -0.10154392       0.28657670
O        1.94342037       3.92688005       6.03611012       0.15842623      -0.14217018       0.19527991
O        0.01249071       3.90043973       8.06144996      -0.07122881       0.07937767       0.36245304
O        3.93858965       1.97584973       1.96671983      -0.08372926       0.00875178      -0.09431295
O        5.91078977       0.02420970       1.95846026      -0.39037008      -0.11751098      -0.02538424
O        3.90692027       0.00394233       3.93575011       0.03250363       0.02250589       0.29514439
O        3.91812035       1.95417981       6.07633023      -0.15227101       0.07953219       0.03171353
O        5.84326996       7.82022561       6.06728016       0.32949253       0.05831596      -0.02217499
O        3.91203036       7.79539133       8.06459005       0.02165383       0.17314246       0.06970955
O        3.90078019       5.89189991       1.96524996       0.12216802      -0.20148373      -0.03571956
O        5.86061013       3.93639034       1.94225027       0.13072131       0.01933855       0.02444553
O        3.94336006       3.92089963       3.95950038      -0.18672380       0.00299482       0.23937408
O        3.89447026       5.86984021       6.06357028       0.08865986      -0.07613911      -0.01249428
O        5.86825999       3.87615019       6.04238013       0.08534777       0.26237876       0.27516486
O        3.93842999       3.93590977       8.04505996      -0.24407174      -0.07843202       0.33270486
40
Lattice="7.955677667601975 0.0 0.0 0.0 7.955677667601975 0.0 0.0 0.0 7.955677667601975" Properties=species:S:1:pos:R:3:forces:R:3 energy=-29615.216167557464 stress="0.00022953940379986294 -0.0 -0.0 -0.0 0.00022953940379986294 -0.0 -0.0 -0.0 0.00022953940379986294" pbc="T T T"
Ba       3.97783883       3.97783883       3.97783883       0.00000000       0.00000000       0.00000000
Ba       3.97783883       0.00000000       3.97783883       0.00000000       0.00000000       0.00000000
Ba       0.00000000       3.97783883       3.97783883       0.00000000       0.00000000       0.00000000
Ba       3.97783883       3.97783883       0.00000000       0.00000000       0.00000000       0.00000000
Ba       0.00000000       0.00000000       3.97783883       0.00000000       0.00000000       0.00000000
Ba       0.00000000       3.97783883       0.00000000       0.00000000       0.00000000       0.00000000
Ba       3.97783883       0.00000000       0.00000000       0.00000000       0.00000000       0.00000000
Ba       0.00000000       0.00000000       0.00000000       0.00000000       0.00000000       0.00000000
Ti       5.96641775       1.98925992       1.98925992       0.01086291      -0.01086291      -0.01086291
Ti       1.98925992       5.96641775       1.98925992      -0.01086291       0.01086291      -0.01086291
Ti       5.96641775       5.96641775       5.96641775       0.01086291       0.01086291       0.01086291
Ti       1.98925992       1.98925992       5.96641775      -0.01086291      -0.01086291       0.01086291
Ti       1.98925992       5.96641775       5.96641775      -0.01086291       0.01086291       0.01086291
Ti       5.96641775       1.98925992       5.96641775       0.01086291      -0.01086291       0.01086291
Ti       5.96641775       5.96641775       1.98925992       0.01086291       0.01086291      -0.01086291
Ti       1.98925992       1.98925992       1.98925992      -0.01086291      -0.01086291      -0.01086291
O        5.96844645       5.96844645       3.97783883      -0.02351094      -0.02351094       0.00000000
O        1.98723122       5.96844645       3.97783883       0.02351094      -0.02351094       0.00000000
O        5.96844645       1.98723122       3.97783883      -0.02351094       0.02351094       0.00000000
O        1.98723122       1.98723122       3.97783883       0.02351094       0.02351094       0.00000000
O        5.96844645       3.97783883       5.96844645      -0.02351094       0.00000000      -0.02351094
O        5.96844645       3.97783883       1.98723122      -0.02351094       0.00000000       0.02351094
O        1.98723122       3.97783883       5.96844645       0.02351094       0.00000000      -0.02351094
O        1.98723122       3.97783883       1.98723122       0.02351094       0.00000000       0.02351094
O        3.97783883       5.96844645       5.96844645       0.00000000      -0.02351094      -0.02351094
O        3.97783883       1.98723122       5.96844645       0.00000000       0.02351094      -0.02351094
O        3.97783883       5.96844645       1.98723122       0.00000000      -0.02351094       0.02351094
O        3.97783883       1.98723122       1.98723122       0.00000000       0.02351094       0.02351094
O        5.96515757       5.96515757       0.00000000       0.01787122       0.01787122       0.00000000
O        1.99052010       5.96515757       0.00000000      -0.01787122       0.01787122       0.00000000