102
Lattice="15.875219423528307 2.0805394208435422e-18 4.195380718028833e-20 -1.3734667765239072e-14 15.875219423529574 3.622259610163662e-13 -3.33861148015418e-17 1.6164574498008607e-13 15.875219423524138" Properties=species:S:1:pos:R:3:forces:R:3 energy=-495.44525146484375 stress="0.0032792019192129374 -0.00023255580163095146 -0.0029993578791618347 -0.00023255580163095146 0.0034275196958333254 -0.0008288242679554969 -0.0029993578791618347 -0.0008288242679554969 0.006637475918978453" pbc="T T T"
H       15.00457258      11.39057835       0.85067200      -0.24522093       0.10724650       0.06398676
He       5.91414040       2.96191600       8.61247374       0.11229829      -0.09814972      -0.00848559
Li      14.00567041      15.77228428       3.37030594       0.09143354       0.05433151      -0.06990123
Be       7.12591788       9.75945065      15.05197664       0.17059991      -0.42471266      -0.01118898
B        6.43991885       9.32967722       0.73413664      -0.06506419      -0.00918360       0.28675011
C        1.68853375       5.95462882       3.34112552       0.18800992      -0.59742498       0.01032443
N        7.99187435      15.50852426       2.08175258       0.03062312      -0.20818938       0.43230921
O        1.03764779       3.37424997      11.56600138       0.90490824      -0.39364284       0.03542473
F        4.72205648       8.63198177      12.97403073       0.22774190       0.24421656       0.07307041
Ne      13.30660870       6.40231814       3.02661291       0.09549300      -0.00185513      -0.05158101
Na       4.84640610       0.06498095       5.25905169      -0.04407829       0.06478629       0.05882622
Mg       9.38143045       6.22305490      15.50418058       0.12328556       0.03050228       0.01868539
Al      14.91715564       6.51574637      10.37507340      -0.01495004       0.20120490       0.18308438
Si       2.61743308       9.85645937       9.05811402      -0.16134816      -0.42376724       0.14046854
P        8.99224578      15.50245260       5.81194439       0.10424778       0.04360619      -0.04758739
S        7.05508459       5.19894572      15.64568668       0.02598193       0.00116086       0.03237266
Cl       1.93199967      12.59764003       0.29888603      -0.02785698      -0.07159576      -0.08846278
Ar       6.32600679       3.17917075       2.62867366       0.02040552      -0.00509292      -0.11255936
K        7.12492856      11.14179936       8.34660826       0.14441204      -0.22807050       0.05024529
Ca      11.59930882      14.70727727       5.93160998      -0.01164225       0.01776595       0.02771504
Sc       8.75423245      15.57839774       0.24434171      -0.21531223      -0.04597366       0.28805628
Ti       1.41375563       5.30372555      11.25415752      -0.07528710       0.10199791       0.04842316
V        3.60144084      14.17329000       7.96070012      -0.04888740       1.05288088       0.44493720
Cr       4.45203551      12.83638383       5.60200684       1.09785879      -0.02269776       0.14369184
Mn       1.24787302      13.37056030       6.68133309       0.01219305      -0.07029924      -0.07463908
Fe       0.60408481      15.35733685       4.43848601       0.14256120       0.02788049      -0.12446374
Co       5.45943941      13.50753769       7.64543576       0.43665338       0.09780246      -0.13365030
Ni       1.60193540      13.33508753       9.24112581      -0.02625503       0.17977738      -0.08460258
Cu       6.62662175       7.22376006      10.42547030      -0.13055706       0.03441736      -0.02434641
Zn      15.25019206       8.62080661       7.95593945      -0.07941222       0.06608108      -0.07073084
Ga       1.86116375       4.01374024       3.02633602      -0.08381484       0.27130896       0.20162162
Ge       8.58869419       8.35059762      14.07896418      -0.10133192       0.04735971       0.12875608
As       5.26751950       7.66784414       4.62092477      -0.26826739      -0.36058208       0.22991410
Se      13.15928097      14.56252328       8.19647042      -0.12317656       0.09568450       0.02471727
Br       8.99111153       8.58615960      10.09673848       0.11541009       0.07701845      -0.03363982
Kr      10.42580443       7.24880315       4.27570808       0.07549413      -0.08238147       0.30426010
Rb       9.38888637       1.40839892       8.57806553      -0.01573674       0.08650743      -0.23996697
Sr      15.82166998      13.07310526       2.31652185       0.09869646      -0.00139970       0.45671237
Y        2.38745437       5.86339791       5.68314992       0.03754729       0.33674464      -0.18275580
Zr      11.57719011       0.69211589      14.64425168       0.33562943      -0.03422078       0.03316903
Nb       0.32572821       1.30444991      12.48949934      -0.34082776      -0.15428695      -0.23087600
Mo       3.28080192      12.05198220       7.80350556      -0.34002233      -1.22225189       0.30963367
Tc       9.47192761       1.15796023      13.71957225      -0.21558237      -0.35585859      -0.14668444
Ru       7.05002649      14.03487568       5.68466795      -0.01199234      -0.12176637       0.08386183
Rh      15.37631512       5.95425038      12.72155513       0.08208287      -0.01517965      -0.33404964
Pd      11.20849544       3.00013231      13.14153870      -0.51761663       0.18308574       0.22470972
Ag      14.93460552      15.02765896      10.08606828       0.03272680      -0.22185540       0.06473200
Cd      13.44342923       4.04070291      13.79677620       0.52816343       0.18474570       0.42342034
In      11.98381831      15.34991603       1.53605926      -0.06317969       0.04317216      -0.08863086
Sn      13.35297200       3.17856396       9.03144342      -0.21173114      -0.12891896       0.02490865
Sb       3.02807501       5.52939502       8.77040463      -0.17523888       0.17799509       0.00818295
Te       4.79627149      12.84747528       2.87357604       0.09522021       0.21695660      -0.34133586
I        9.34805538      11.98212691       1.94832422       0.01809499       0.08165725      -0.09093045
Xe       5.12228847      13.16318075      13.50947613      -0.20356384       0.14831531      -0.24492452
Cs      12.97295421       7.80654835      15.61311029       0.00074446       0.18413593       0.14229423
Ba      12.75931165      12.21460689      15.82613768      -0.07173818      -0.01593400       0.11671332
La       6.63785056      10.28751958       3.73930739       0.04210067       0.00937601      -0.24103388
Ce       3.56634431       6.70169715       2.19069261      -0.28278312      -0.29693478      -0.02603289
Pr       6.85590625       9.39783860      12.15622757      -0.29625797       0.06456259       0.03461944
Nd       7.54222264      14.31211486       3.64660130      -0.08118689       0.08305684      -0.16923913
Pm       4.41882653      15.84622112       1.56378158      -0.01773608       0.22506738      -0.07621299
Sm       3.89354928      10.57330498       0.97427630       0.18638173      -0.09840721      -0.41795564
Eu       0.95358302      13.97795058      12.19817570       0.16916962      -0.40021691       0.09633301
Gd       3.85321948       7.61246024      11.03094022       0.21190614      -0.04560092      -0.25253573
Tb      15.16991729       5.52306711       7.77751321      -0.28135574       0.17243871      -0.22679763
Dy       0.00832321      11.15428873       9.73075462       0.11849019       0.24928366      -0.03150284
Ho      11.88996029      15.13337670      10.58662637       0.15587279      -0.01830104      -0.02389789
Er       7.67132588       5.74037430      12.88788899       0.17769837      -0.12226462      -0.31490657
Tm      14.76925057       0.45908980      15.72150168      -0.19261727       0.26371089      -0.16697612
Yb       9.74121680       1.00783773       3.35245496       0.02060229       0.00723563       0.04930131
Lu       0.46750961      10.53702521      15.60783015       0.05588755      -0.21464911       0.03690803
Hf      15.02589745       3.78726016      11.39402496      -0.91840506       0.18775682       0.18911988
Ta       1.31124142       7.64525200       9.29953975       0.55283827       0.17809767      -0.37360242
W       14.12411048      15.38477357      12.87592365       0.28960544       0.26252860       0.12449372
Re       5.36176215       8.26472170       2.13655744      -0.07091576       0.25298983      -0.04066908
Os      11.73758204       2.15736508      10.83249341      -0.37969232      -0.14415956      -0.43375111
Ir       0.13157174       7.31216069       5.90456388       0.21985903       0.13273312       0.03475946
Pt       1.52228296       8.61739672       1.41168076       0.03850970      -0.20671704       0.03378817
Au      10.37941411      14.04955645      14.67805692       0.03828433      -0.18818170      -0.09159827
Hg       6.49458112      15.33980713       8.99018851       0.06504664      -0.05798399       0.02573595
Tl       1.18093993       2.80905471       8.84823280      -0.10318016      -0.23044676      -0.10103689
Pb       1.84896013       1.24736506      15.01411620       0.19650158       0.05195172       0.20407574
Bi      14.92910337      11.54898600      13.12536276       0.08490536      -0.04167807      -0.27506316
Po       1.96896430      15.81782990       9.86571176       0.12990701       0.22827539       0.27013794
At       6.36181120       0.98808028      14.71441034       0.05907668       0.14925134      -0.06284334
Rn       7.94003489       5.33149437       7.84158590       0.06943139       0.11883457      -0.21379018
Fr      11.36831997       5.83218475      11.12794489      -0.20509183      -0.03178987       0.08592051
Ra       0.73980600       4.98092927      15.58887683       0.08384499      -0.03326292       0.22165783
Ac       0.59040650       8.55478851      12.41503299      -0.06589848       0.13493633      -0.02205670
Th       5.55044108       7.53958201      14.99873238      -0.11326553       0.01285562      -0.01713136
Pa       1.53190293       0.80110557       3.36724124       0.01319301      -0.12784782      -0.02673414
U        2.60544627      13.40533423       5.32029177      -1.76497364       0.33632141      -0.52462840
Np       3.20573375       1.90537684       1.83334488      -0.14774400      -0.37535572      -0.34811217
Pu       0.33903344       7.49548700       3.43176452      -0.18042871       0.35463786       0.34670097
Am      13.56673889       1.41323575      11.89509279       0.50685728       0.19097540       0.25979578
Cm       7.32089193       6.54293807       2.23880707       0.06967951      -0.10234918       0.07355770
Bk       9.17950550      11.37936695      14.49002006      -0.12382453       0.04578827       0.01317328
Cf       8.94898825       3.06240468      14.97755166       0.04114866      -0.01647530       0.07844441
Es       8.92022119       9.04273488       0.98184628       0.10166724       0.11522490       0.00567627
Fm      12.90055330       8.59850195       9.45791717      -0.03095633      -0.10028411      -0.23997304
Md       4.72331662       7.94072529       7.56521834       0.07488202       0.01996486       0.15268150
No       1.40125284       9.94069721       6.19664322       0.02414058      -0.14000338       0.10121576
