102
Lattice="15.851909957446454 -1.577952616514276e-13 -2.3331181067211535e-18 -1.580941619397057e-13 15.851909957465688 2.9482129056165017e-16 -4.552191637363671e-17 4.2464968410473375e-16 15.85190995744555" Properties=species:S:1:pos:R:3:forces:R:3 energy=-497.95343017578125 stress="0.0044805873185396194 0.001313214364927262 0.001042089075781405 0.001313214364927262 0.0020656147971749306 0.0010809913510456681 0.001042089075781405 0.0010809913510456681 0.003192693693563342" pbc="T T T"
H        3.61369450       4.05896499      14.40737290       0.05559641       0.04061423       0.10983145
He       2.58962411      12.79990093       5.19256783       0.01268294      -0.00438944       0.00098039
Li       8.26216425       4.14238910       0.45572263      -0.06008994      -0.01577299      -0.03768014
Be       0.16334412      12.01899953      14.66059877      -0.28596592      -0.10117269      -0.02929837
B       11.14264749       9.86724722       4.87021384       0.20347899      -0.09318098      -0.13875894
C        8.81583932       5.02382508      14.40324630       0.46102130       0.07373869       0.35391730
N        3.23084407       8.84974185       7.97452132       0.32065785       0.09766318      -0.14123297
O        0.72896618       3.34192947      14.56874724       0.19941351       0.02186847       0.08416164
F        6.09824099      15.71765141       2.21427564       0.08517033       0.01099503      -0.01717117
Ne      15.27988369       1.40427428      11.63134813       0.05762742      -0.03008947      -0.00249540
Na      12.88691121       2.62426365      11.00491436       0.00812113       0.02431382      -0.06550618
Mg       2.05600757       5.59410060       2.46931632      -0.24299532      -0.00327958       0.27159327
Al      12.11776559      13.88916438       5.57863783      -0.14534846      -0.03715190      -0.41696054
Si      12.87781120      13.44770565      15.76432017      -0.15499669      -0.03759906      -0.03654829
P       14.70957071       0.53050497       3.29854485       0.12689985      -0.12118050       0.06729102
S        1.82631175      12.26515792      13.39321216      -0.00403761       0.03258869      -0.05593802
Cl       9.26839476       2.63416227       1.87299951      -0.17786272       0.28744709      -0.00520504
Ar       7.98562016       7.79589607      10.63680666      -0.16078651      -0.06873775       0.06836413
K        4.76337287       9.09371394      10.34742933      -0.10226903      -0.00292924       0.01567256
Ca       5.20344886       8.82380132       6.75753344      -0.10973161      -0.10088886      -0.04806884
Sc       0.51340495      15.47237029       1.46555295       0.03959996      -0.06198695      -0.00421391
Ti      11.20569743       5.80916178      11.28746279       0.01543164      -0.33214411       0.45298007
V       15.35361266      11.57872386      12.50074284       0.80286825       0.20768476       0.06579758
Cr      14.67116252       8.65814655       7.13236244       0.18972553       0.04401095      -0.58193189
Mn      13.18604727       9.83397989       5.30479954       0.15027362      -0.37413919      -0.03419173
Fe       0.01322074       4.25615772       4.48710798      -0.03525543      -0.07781935      -0.18217953
Co      15.27317288      10.56413573       8.75350321      -0.35873547      -0.20163545      -0.12026124
Ni      10.77715187       2.25322722       8.44747561      -0.04478344       0.14997265      -0.01477383
Cu      10.49601315       3.73331274      10.16608771       0.03274281      -0.20473948      -0.15139011
Zn      10.97106675       7.78668698       9.36287900      -0.03537414      -0.03782466      -0.03322783
Ga      11.90241087      11.65158892       4.02987106       0.12311499       0.05159666      -0.31431079
Ge       8.97872416      15.80701736       4.62823677       0.11309476      -0.20348561       0.24439208
As       5.58388347       5.95115617       7.60810938      -0.09677416      -0.08548613      -0.06988998
Se       7.91374973      10.34940699       7.17405497      -0.01827016      -0.02435216      -0.12822241
Br       1.91075295      15.22204806      10.83174647      -0.01700579      -0.06328389      -0.03831517
Kr       9.85556209       5.74517120       3.94952469       0.03930393       0.25610682       0.19960913
Rb       5.28068153       1.90169928       4.16351420       0.02781193      -0.11875528       0.12335670
Sr      12.31189660       4.76166264       7.84628652       0.23053820       0.18432373      -0.22498748
Y        2.06159371      12.57309698       0.49068799       0.07753025      -0.23040351       0.10309201
Zr       9.75243579      13.29785634       3.68402074       0.05935261       0.04148352      -0.16041860
Nb       1.38572362       8.80061042       8.31527170      -0.39168790       0.00556046       0.27370369
Mo       3.88027893       5.33844688       9.44678319       0.12458208      -0.30978486       0.03565073
Tc       3.13415709       6.79100633       7.87532882       0.04782277       0.07632501      -0.14124084
Ru      13.65071869      11.86895001      10.46405186      -0.23765090       0.13711871      -0.19938311
Rh       2.61761039       8.18014808      13.05476766       0.06859407      -0.03098531      -0.04438488
Pd       2.44689133       3.55272948       4.05030783      -0.29201469      -0.13655373      -0.35035461
Ag      11.03502614      14.29932956       1.38061204      -0.14172457       0.06260082       0.00255764
Cd      13.70405366       2.84208341       5.01515291       0.12143849       0.29321232       0.05572587
In       5.15760021       7.56438297      13.73987070      -0.33722362       0.10332263      -0.11624853
Sn      13.57004108       5.17841658      12.98249047       0.11195649      -0.04633050       0.06564029
Sb      14.92213300       6.69775174       8.89289009       0.05759022      -0.05186674       0.15773559
Te      10.26939462      10.23034727      13.05457130       0.34426212       0.30471504      -0.20592344
I        4.61449366      10.85902237      15.66621514      -0.04448330       0.10342957       0.11910404
Xe       4.42437236      12.85303070       8.38776004       0.22776037       0.08460981      -0.12641299
Cs       7.94959611       9.85971115       1.83331644       0.21628605       0.02611513       0.02815619
Ba       7.82771191       3.45960550       8.52947863      -0.01978298       0.02452925       0.01363492
La      15.62749386       4.82771535       0.03094726       0.29447791      -0.07962093      -0.19981815
Ce       4.94546542       5.00126101       0.23649169       0.00373392      -0.19867843      -0.08130215
Pr      13.60786865      11.84615876      13.46557064      -0.48898655      -0.21415663       0.61980361
Nd      12.00526572       0.52239840       3.71028257      -0.41570088      -0.31855363       0.03743643
Pm       0.62396075       6.34246372       6.24971176      -0.06703398       0.18455660      -0.14143355
Sm       8.88370351       7.44174308      13.65389102      -0.13362795      -0.09205937       0.11549416
Eu       0.49753772      14.51717897      13.33425335      -0.11562173       0.05522518      -0.15667497
Gd       1.08478346       4.51252990      12.69404866       0.06039646      -0.16665876       0.06491856
Tb      10.55514603      13.28536694      14.39072914      -0.33914763      -0.03947499      -0.12314364
Dy       5.08544210      14.49281150       0.29286796       0.06943733      -0.04801388      -0.15177161
Ho      10.46806874       0.34467816       7.05376452       0.04495040      -0.13822249      -0.02747020
Er      13.78357210      13.62880131       2.83771289       0.20241638       0.13941094      -0.05725792
Tm       0.46905743      12.78644835       9.91578979       0.09580666       0.08530539       0.23938757
Yb       7.53500025      13.40408843       6.20127684       0.16435817      -0.10493775       0.03211329
Lu      11.08366839       9.96547930       7.36458348      -0.32965383      -0.38836259       0.07043239
Hf       0.36961735       2.57703702       2.61965531       0.01292443       0.42393205       0.13740715
Ta       7.15952751       4.28702254      13.85945852      -0.68352062       0.42728442      -0.45342553
W        9.60109904      11.06096097       5.25151049      -0.50430381       1.03781736       0.36552912
Re       6.77805048       6.20535556      15.24484714       0.30332077      -0.44315296       0.40381503
Os       4.66883031       3.59914770       8.03313030      -0.10606182       0.37007958      -0.00050929
Ir       2.15474221      15.01463645      15.42170325       0.13114706       0.03446782       0.17992359
Pt      15.15345377      13.60436749       0.13150754       0.37138474       0.14374432       0.12896711
Au       8.06389555      13.50596961       0.32358838       0.42228487      -0.15502465       0.57250273
Hg       2.35828022       6.63518493      15.55504299       0.04382534       0.29140931      -0.03713208
Tl       1.05322530       9.86465234      11.05399242       0.17923450      -0.19198449      -0.30069155
Pb      15.73117113       7.27196357      13.62299791       0.10857220       0.04357177       0.11434358
Bi      10.45076033      13.09917842       7.80972824      -0.10164841      -0.47199720      -0.02947097
Po       3.15778059       7.52214425       4.57298457      -0.16961318      -0.05390324      -0.05663951
At       6.27181640       1.77814208      15.37416115      -0.07661945       0.10831365      -0.05448905
Rn       6.33356387      13.02683211      11.97052132      -0.51485813       0.35217839       0.47640103
Fr      11.59893248       4.53693015       0.66918679      -0.19544671       0.31548807       0.30606538
Ra      13.41497509       8.64150749      11.46715641      -0.19805181      -0.37438694      -0.22101535
Ac       2.53087229       1.99746634      15.40199038      -0.06953478       0.05641408       0.15046430
Th       8.32800983       0.07292568       1.89142671      -0.16426909      -0.10708535      -0.21152511
Pa      11.41282405      11.84450958      10.58873600      -0.07651740      -0.10841274       0.12238905
U        1.71109059       9.83600473      14.29394774      -0.01728401      -0.06088645       0.01285656
Np      13.82500033      11.31091065       6.35047696       0.57413638       0.35317695      -0.26778507
Pu       0.17031883       8.58034202       5.73327846      -0.06917948       0.49133825       0.74162972
Am       0.72814063       1.45362861       5.01158638      -0.06816608      -0.02346021       0.06845045
Cm      14.60862130       5.52302467       3.45549077      -0.09455527      -0.81967521      -0.67182493
Bk      13.60195306      12.63431317       8.01824625      -0.14850228       0.20198381       0.11485291
Cf       3.09439765       4.57245175       6.34066041       0.02991284      -0.14307013       0.20650864
Es      10.41823053       4.61076168      12.92498371       0.15993200       0.06143990      -0.35523006
Fm       9.34044308      10.60068145       9.85341679       0.57723427      -0.01484817      -0.06951004
Md       1.66742079       6.75849250      10.66305017      -0.03149790      -0.02843440      -0.24275476
No       2.50800394       2.49006094       9.77966374       0.09241503       0.06992567      -0.04663885
