102
Lattice="15.680542593481713 -2.9131171181717443e-14 -6.2769262597343526e-15 5.943784977224908e-14 15.680542593491202 -1.998305371835952e-13 1.9642959296747597e-15 -8.324492311376796e-14 15.680542593471435" Properties=species:S:1:pos:R:3:forces:R:3 energy=-494.81231689453125 stress="0.0038757487200200558 -0.0005085112061351538 -0.00036794763582292944 -0.0005085112061351538 0.005628868006169796 0.000591266609262675 -0.00036794763582292944 0.000591266609262675 0.0007622967823408544" pbc="T T T"
H       14.37116716       3.90051501       0.34523425      -0.02203470      -0.29771781      -0.01182416
He       7.89737278       0.50675357       8.85586619       0.04557662       0.03957624      -0.04572832
Li       2.99158379      10.45023415       2.56490739      -0.20359144      -0.12640843      -0.12426597
Be       1.45434588       8.31927156      15.50049010      -0.03435771       0.00356692      -0.15748489
B       12.31878367      12.06017632       5.41351422      -0.37986735      -0.09441322      -0.02882092
C       10.39361013       6.44304941       4.08436373      -0.09961335       0.04529369       0.14884602
N       13.59579025       9.75913101       9.39123457      -0.25162855       0.14615178       0.01843917
O       10.57994250       2.92853765       4.50286107      -0.02596100      -0.06654817      -0.18176439
F        6.03820549       7.57377256      13.81807464       0.11509445      -0.12261897      -0.05678925
Ne       8.00723703       5.99213141       1.65581687       0.09210905       0.04394092       0.25552830
Na       3.80721851       6.96996996       1.48945373       0.00645138       0.02588896       0.17018023
Mg       3.13006505       1.81546238       3.86898813      -0.08683959       0.05881932       0.39307621
Al       9.39193393       7.59314491      13.48360142       0.09577416       0.03712090       0.00670427
Si       0.62125676      15.43748226      14.83215610      -0.03665509      -0.00412384       0.26527032
P       13.22755865       1.12852143       5.06373397       0.00586802       0.03870479      -0.29723185
S        4.35237444       5.59795711      12.11684746       0.05361928       0.03862572      -0.17129418
Cl       5.86307130       5.26569048       0.08924281      -0.13410200       0.07985723       0.05341337
Ar       7.43226273      13.77791101      10.12061127      -0.17324933      -0.02459471      -0.09463552
K        3.45568274       8.24862422       5.47739716       0.00740414       0.11279088       0.04856614
Ca      15.07816222      12.99823673      13.27703544      -0.25528038      -0.29785061      -0.12695417
Sc       7.69250891      12.89124291       5.15339516       0.13778470       0.13101500      -0.03219128
Ti       1.88510038      11.35291512      10.59249312       0.07063439       0.39552453       0.24930321
V       10.99217338       8.19725845       3.44971372       0.15724149      -0.20648599      -0.00028157
Cr       9.90131049       4.69491669       4.59670088      -0.16834684       0.03517920       0.05773117
Mn       2.20895003       9.04051701      11.53895063       0.05261391      -0.35670090       0.13172269
Fe      12.46081730       7.34333034      13.61137470      -0.23493448      -0.03517291      -0.02962422
Co      13.38316369       6.99429803       0.15517194       0.13222897      -0.03455195      -0.19820708
Ni       2.58471384      13.48252730      10.72501209       0.01674625      -0.06198877      -0.12591419
Cu       2.00455666      11.68020898       4.81390761       0.20463726       0.18358409       0.09353392
Zn      11.33931195       1.23521998      13.05210046      -0.18114972      -0.04113308       0.11339507
Ga       2.28663860      12.70191909      12.83595248       0.76012963      -0.52630138       0.28737491
Ge       2.23334381       4.44782293       1.41283861      -0.09671917       0.15400733       0.00130961
As       9.13124914      11.97671286       0.44503845      -0.10086536      -0.01165925      -0.03800534
Se      12.36937290      15.43372619       1.01645553      -0.02282444       0.11550209      -0.19404319
Br       3.75091127       6.73848183       8.18736093       0.03870810      -0.00366578      -0.08392767
Kr       6.81152936       4.40642376       8.65520026       0.02896104       0.02794985       0.06815827
Rb      13.03462969       6.13583981       5.82328493      -0.12592316      -0.00118636       0.00624096
Sr      11.23502789       9.73670507       0.44715879      -0.00323489      -0.11657686      -0.05921297
Y       13.29756872      11.19145525       7.65209658       0.01834417      -0.01585782      -0.01210886
Zr      12.78420438      10.83896546      11.00892771       0.00397544      -0.02257544      -0.28450453
Nb      14.74926440      15.06946223       3.95536681       0.32125601       0.16477457       0.35501155
Mo      12.36131359       6.83658218      11.10438222      -0.07636505       0.13114130      -0.50367993
Tc      12.79497985      10.08955556      13.48288955       0.14101444       0.06638163       0.14133778
Ru       0.19069564      13.41044741       5.60421040       0.18569654       0.04612824       0.06832302
Rh       1.05816446       0.62426042       4.86901503      -0.14825335      -0.25089782      -0.18892762
Pd       5.60381494       2.55389039       4.05244481       0.09596244       0.11200801      -0.22245201
Ag       4.98978204      11.28122036       4.32633686      -0.11279820       0.28891033      -0.19142154
Cd       5.26329549       2.02276168      13.86048683       0.07105207      -0.05268019      -0.18763661
In      13.25112784      15.25181962      12.63508600       0.08134431       0.17213212      -0.13726237
Sn      12.04683476       4.84873219       9.16163217       0.05158579       0.05435765      -0.03313569
Sb       8.72988999      15.61777871       4.90656935       0.63050842      -0.27051178      -0.00935334
Te       8.00919099       2.40108815      13.30748084      -0.09003192      -0.03795317       0.00396886
I        5.16748373       0.45925574       6.86897787       0.01665509      -0.12435327       0.11607644
Xe       7.81006163       9.99635300       8.96673998      -0.00464415      -0.00658863      -0.00091811
Cs       5.87987038      11.19219539      14.58861982      -0.40648830       0.05518281      -0.44817528
Ba       3.97267140      12.84724478       7.20002476       0.32484850      -0.37796381       0.08196788
La      14.04911383       1.76540750      14.90533460      -0.03900313      -0.00333124       0.11846441
Ce      10.58155942      14.00788166      14.81259513       0.25914875       0.10487676      -0.07428404
Pr      11.96744003       8.05254840       9.30894624       0.09385329       0.01024404       0.06272352
Nd       6.78440955       5.49664413      13.24336275       0.12512217      -0.06132372      -0.03435144
Pm      15.38731260       8.87391595      10.11002880       0.00393569       0.02127188       0.07007635
Sm      15.05509771       1.38006222       6.79948830       0.00988711      -0.10313299       0.60462928
Eu      14.53045345      11.92927684       4.50970477       0.30285546      -0.06724268      -0.23663831
Gd       2.79419713      15.48668369      12.86545148       0.01828004       0.01978895       0.10002494
Tb       1.95564777      12.94940419      15.64232242       0.01210617       0.08537842      -0.16776985
Dy      11.57757412       2.77782545       6.59636030       0.06710492      -0.02077365       0.03076218
Ho       9.82794532      11.08663176      13.06377153      -0.10686107      -0.22122715       0.00262165
Er       8.39568958       7.33572531       4.90094131       0.24100932      -0.23305720      -0.06710792
Tm      12.33619724      14.44723335       6.00437194      -0.50000143      -0.01613203       0.00331454
Yb       0.29032676      15.05516989      10.13903222      -0.12702903       0.02692109       0.22955406
Lu      10.48037589      10.64047062       5.20687116      -0.11991784      -0.03872472       0.36493838
Hf       1.25451225      10.29474149      13.58124174      -0.02402423       0.32340273       0.12502149
Ta      10.91565077      14.04227183      11.57957802      -0.18951860       0.27348405       0.11562234
W       11.12046935       8.78493955      12.05852579      -0.23301452       0.23207892      -0.05178285
Re       1.70301742       6.06890984      15.17528878      -0.13635993       0.16375884       0.03686530
Os       0.83469833       7.75520821      13.23599533      -0.00785869      -0.20045654       0.16194940
Ir      12.16096053      12.63015829      13.02588975      -0.27145505       0.11032171       0.38340160
Pt       9.33566002      15.42652270      12.96703842       0.21352163       0.30173382      -0.24527949
Au       6.84130382      13.01095095       2.74367905       0.05684938       0.22909050       0.24301961
Hg       6.00116896       5.38595364       4.04935731       0.19630308       0.14477398      -0.04338381
Tl       3.12100853       4.77615732       4.00462747      -0.29278326       0.02397962       0.21966127
Pb       1.83877458      15.35628581       7.24509500       0.14122473      -0.26521000      -0.02659244
Bi       0.66564757      12.14548561       8.16548038      -0.10625239      -0.06650202      -0.14548212
Po      10.66745704       6.39657447      15.60277206       0.07636400       0.06158516      -0.11504117
At      12.71804665      14.17687240       9.11577099      -0.10082038       0.04013290       0.04578197
Rn       1.39848951       3.87478186      10.41466882      -0.09574188      -0.00687951      -0.03739684
Fr      10.40083268       2.86151819       0.34447199      -0.21046565       0.04836588       0.02232245
Ra      15.18412715       3.26921090       3.08622135       0.16778842       0.06755477      -0.24374308
Ac       2.17576933       2.54294468      14.85545671      -0.13303594       0.07469752      -0.31778365
Th       3.71625640       7.75911340      13.70935917       0.01438081      -0.22789507       0.06644210
Pa       8.32352951       3.32924400       4.41194088      -0.00305320       0.14971656       0.08115878
U       15.18764894       5.98297059       0.03437260       0.09680495      -0.07324222       0.23931406
Np       5.92960226      15.56308880       4.03011742       0.00284960      -0.12371293      -0.08308429
Pu      14.18071338       8.30604016      13.28936577       0.15925172       0.26999635      -0.33602130
Am      15.08119873      15.13099556       1.72968505       0.07576352       0.00915012      -0.44505742
Cm      12.22551898       6.95915335       2.48545335      -0.08575952       0.22728489       0.20039403
Bk       2.84224426       7.38717658      10.63111239       0.13413902      -0.53441226      -0.05069339
Cf       1.56726126      15.55604146       2.03141719      -0.09916042      -0.03470646      -0.00552617
Es       5.01769399       3.00708205       1.43538775      -0.14812638      -0.02540579      -0.02336869
Fm       8.10608665      10.29531850       2.78737751       0.01906833       0.22424260       0.11213404
Md      11.20421155       1.08479171       3.38667678      -0.02440193       0.11439729       0.03737989
No      10.38216496      13.26186963       2.98426307       0.07896616      -0.24989651       0.21510866
