102
Lattice="15.644675227654048 -4.071281424630929e-19 -1.1256759151683996e-20 9.790694864953924e-16 15.644675227649023 6.952147304864373e-13 -1.2621915210787174e-17 5.216929793848772e-13 15.64467522765244" Properties=species:S:1:pos:R:3:forces:R:3 energy=-496.67730712890625 stress="0.007440980523824692 -0.00047311112575698644 -0.00032433720480185 -0.00047311112575698644 0.006265898700803518 -0.002178856753744185 -0.00032433720480185 -0.002178856753744185 0.00505765900015831" pbc="T T T"
H        3.29248288      10.12515624      13.70967861      -0.08928996      -0.15376978       0.00480691
He       0.06059987       4.44828895       0.93573238      -0.02244759       0.06929380       0.03107312
Li       8.19839335       8.64401961       0.94136240      -0.05241445      -0.01407850      -0.08021753
Be      12.68466704       8.83414514       2.74798139      -0.25960577      -0.06592909       0.07114975
B        8.52768675      10.40979410       8.64829253       0.30990359       0.19054417      -0.59830725
C       10.13797236      13.95076098       1.00359958      -0.19264363       0.22912349      -0.59745395
N       10.10863703      12.04375462       5.50320085       0.25172687       0.04249093      -0.06691557
O        2.13470829       1.34085158       0.58784654      -0.00522470      -0.04155689      -0.45677215
F       13.91194289       1.63106247       6.52775260      -0.10437208       0.08297078       0.12369365
Ne       5.71255618       6.93758501       6.89795438       0.01187365       0.12162981      -0.14480996
Na      10.39462158      11.30378350       0.51487439      -0.07342513       0.10837336      -0.15462027
Mg       1.58631072       1.45395566       2.43565208      -0.06637946       0.20712802      -0.03585935
Al      10.41373687       7.19374866       4.13829925       0.16614403       0.10569957      -0.11120841
Si      12.03598960       9.01712337       4.87291566       0.32818621      -0.12081143      -0.39517286
P        7.37647988       2.84477234       5.87305753      -0.04089174       0.18118918       0.15646708
S        8.43829966       6.89488746       5.43557876       0.27905929       0.04903911      -0.05605844
Cl       5.05100252      12.61565896       5.63082553      -0.02518486       0.03606625       0.02632270
Ar      10.11660180       3.00317651      11.72974969       0.02367470       0.22081381      -0.19837648
K        7.69023396       4.67975809       3.40825710       0.18187822       0.16061208      -0.37485930
Ca      13.90323022       5.84873834      12.39597427      -0.09364401      -0.23092064      -0.20198813
Sc      12.90632576      12.05736068       9.50643114      -0.07242763       0.12013653       0.01129141
Ti       1.39317873       0.86464523       9.81774284      -0.35516378      -0.14197135      -0.15728730
V        1.12393807       7.69804212      15.48440182       0.38952342       0.35099453       0.28783089
Cr      13.14062985      10.16942577       6.75972418      -0.22924325       0.35099787       0.33808249
Mn       6.47678227      14.93533555       5.41213325      -0.52473950       0.03030327      -0.51766467
Fe       5.68955645       8.53597633      12.71616867       0.56468052      -0.62274557       0.26781571
Co       6.00603399      12.10451047      13.75199116      -0.16549644      -0.04223961       0.00624979
Ni      10.26205627      10.35775428       4.44784248      -0.16614996       0.13055405       0.31632170
Cu       9.92216636      11.36420794       7.43910591      -0.21676993      -0.34487244       0.10297590
Zn       9.97426965      11.51456424       9.78922591       0.14456560       0.12048833       0.36586046
Ga      10.63668697      13.15418185      11.31640368      -0.15412399       0.10542516       0.10170883
Ge      12.79073619      12.72505020      12.76223614      -0.07741457       0.04762722      -0.08968858
As       7.35029745      11.27654146       9.96868237      -0.34863371       0.20941623       0.21272138
Se       7.89082390      13.91207842       3.61286601      -0.06257313      -0.07570228       0.31392342
Br      15.52716758       7.40890854       6.09456127      -0.12656307       0.48833585       0.24135710
Kr       2.85168410      10.22517536       7.22532705      -0.04678943      -0.11370584      -0.00075029
Rb       2.28801997      13.78051023       5.28050889      -0.13557139       0.04312137       0.19318740
Sr       9.88982626       1.40482075       1.52363394      -0.00273626      -0.08688664      -0.10937585
Y        4.09092212       1.64641895      15.38181240      -0.09859002      -0.14874087       0.05300660
Zr      13.00790744      15.26537043      10.90463554       0.54279011       0.09124675      -0.40899116
Nb      14.87898776       1.88849798      11.54217977       0.56242865      -0.33152711       0.06897787
Mo       0.23004088      15.43469242      12.18023823      -0.00384939       0.28818792      -0.19692032
Tc      11.74949338       9.94601829       8.83155339       0.10279319      -0.03124683      -0.01506805
Ru      13.61406627      15.08120096      13.30129920      -0.30942351       0.01683682      -0.05158942
Rh       2.93830324       5.82656551       6.41058460       0.09593186      -0.34367573       0.32614368
Pd      11.42747444       0.22353997       3.69018799      -0.08631003       0.05444916       0.06862162
Ag       0.77229139       3.10869926       4.27230484      -0.08820200      -0.03589296       0.06616090
Cd       5.46166070       9.38618462      15.44259836      -0.01810863       0.14278653      -0.02335848
In       6.23682120       2.61973174      10.06919264       0.00161288       0.32795247       0.04184750
Sn      11.70401846       7.52871837      10.06779284      -0.02401924       0.03565294       0.07020187
Sb       6.57502742       1.64048233       1.95446103       0.01872159      -0.08554214      -0.12197433
Te       2.26842187       1.64929566      12.42638766      -0.15808538       0.01771584      -0.03719389
I        0.22250990      14.26542670       2.37309191      -0.03217129       0.18389088      -0.17046550
Xe      10.97536031       2.25240428       7.18514301      -0.10443723      -0.07174630       0.35066903
Cs      14.33264772       5.30213531       8.43254252      -0.10472845       0.12828341       0.09497729
Ba      12.72897429      14.98474015       0.77014793      -0.01217165      -0.23166065      -0.03113437
La      10.20827155       8.46763319       7.20835544      -0.34626240      -0.00437978       0.21614332
Ce      15.20224282       1.27987309       8.36264119      -0.15117216      -0.15957782      -0.00438547
Pr       5.70657589      10.52806619      12.54187013      -0.12804624       0.74993598      -0.15390709
Nd      13.41358409       6.67946486       4.32708575      -0.06939384       0.13157788      -0.57484138
Pm       5.19415019      15.30767772       4.01107422       0.83942962      -0.31851909       0.50469565
Sm      14.29733223       0.95725094       4.41262317       0.38549936       0.05310941       0.11464836
Eu       5.44925808       5.61693247      11.27942892       0.33377856       0.16080159       0.22487238
Gd       7.85776688      12.52641584       6.26067023       0.22514610      -0.50258774      -0.13847807
Tb       7.00250554       0.81643942       7.57553106      -0.28038132       0.05101365       0.02412716
Dy       4.59748690       3.34912802       6.05481016       0.00819948       0.39917776       0.34376884
Ho      10.60250693      13.26824998       3.37492731      -0.20681490      -0.14611074       0.37014949
Er       7.86429668       9.15334753       4.11537596      -0.07547727      -0.18687773      -0.17992383
Tm       0.46797401       0.82164733      14.88288434       0.22378121      -0.03244388       0.27977070
Yb      12.89290076       9.77418493      11.96122222      -0.09978024       0.14141503       0.11149487
Lu       7.39786100       1.30633719      14.65233779       0.33610177      -0.12860873      -0.25901109
Hf       8.06639867       0.94002211       4.46684016      -0.22200343      -0.20733187      -0.21476008
Ta      11.12403935      14.75880586      13.28118864      -0.00551219      -0.19639605       0.64934498
W        5.71041218      14.70760001      14.16307132       0.09118688       0.01129641      -0.34463456
Re       9.35343481      14.62480339      15.12809890       0.09238505      -0.15243603       0.21711761
Os      14.62600318      13.33219906      11.18611039      -0.16095327      -0.14004415       0.00609601
Ir       5.82500117       2.89151071      12.98707113       0.01183482      -0.04463119      -0.16994323
Pt       3.86389902       7.02141418      15.58968389      -0.01443280       0.33445740      -0.20504585
Au      10.36506455       8.91363956       2.33393480       0.18478626       0.28942671      -0.07048164
Hg      14.74609209       8.22898954       1.55026451       0.08219889      -0.14275545       0.11797211
Tl       5.71887161       7.58265387       2.23034538       0.06990564       0.07457986      -0.12219568
Pb       8.03810590      13.88540676      12.70462067       0.03749454       0.03377978      -0.27475971
Bi       1.54119243       3.37122025       7.00278537       0.19846466      -0.11998719       0.20450209
Po       0.11159391       8.40399715      12.82482037       0.02116619      -0.01641625       0.14207131
At       8.79195590       9.06272342      13.93050016      -0.20531487      -0.12016474      -0.19197372
Rn       0.28244314      10.82877324       4.31888965       0.14544183      -0.04171515       0.07463619
Fr       8.83834844       4.94256985       8.47572903      -0.15747106       0.17514202       0.03738702
Ra       6.82420689       5.55087867      14.87756714      -0.07058600       0.04195719      -0.03442386
Ac      11.91101057       7.03731510       0.50014987       0.23169294      -0.11572731       0.06913251
Th       3.38319375       7.97593055      12.91150538      -0.39737502      -0.19167370       0.04192501
Pa       5.38742315       0.51483533      12.14382101      -0.09427494      -0.19609869       0.35264060
U        2.55436648       6.85082684       2.17423027       0.19085836       0.07781935      -0.00826859
Np       2.10132953       6.04337827       4.40990776      -0.62440765      -0.08209825      -0.45913815
Pu      12.09382388      11.55720710       5.98911301       0.54666722      -0.44367155       0.01910621
Am       3.94612319       4.07873235      11.62861667      -0.10615122      -0.04423630       0.52682239
Cm       1.97308675       9.49678413      15.59261800      -0.28648949      -0.34447804      -0.28314912
Bk       0.92688480      14.22130759       9.68393601      -0.14381972      -0.02975872       0.01576412
Cf       0.57425466       5.77898306       2.76178916       0.07069194      -0.04221576      -0.12744260
Es       8.55732273       8.78697102      10.58553669       0.27456295      -0.23017317       0.01030552
Fm       6.95972642      14.10369233       0.87201831       0.18142238       0.01657710       0.04006326
Md       3.20984016      13.65430993      12.78561847      -0.16378349       0.13646448       0.00565943
No      15.56233677      12.79997792      13.93561304       0.00172859      -0.25157082       0.18718228
