102
Lattice="15.859376806758146 -1.726789576358979e-13 1.0481581094620872e-17 1.269422276951179e-13 15.859376806755531 1.1449560666120885e-16 -2.6037279163900082e-17 -1.1667683858960109e-17 15.859376806757439" Properties=species:S:1:pos:R:3:forces:R:3 energy=-484.17584228515625 stress="0.0033154580742120743 0.00020509507885435596 0.001125823997426778 0.00020509507885435596 0.006581766065210104 0.0027543173637241125 0.001125823997426778 0.0027543173637241125 0.004400663077831268" pbc="T T T"
H        0.94598725      13.81519134       6.52091377       0.14956060       0.01687445      -0.12242396
He       4.17620638      13.16465840       3.59430139      -0.00031108      -0.04645689      -0.02390488
Li      15.50392771       5.70572281      11.32975530      -0.05403630      -0.01310907      -0.07047227
Be       4.37861651       0.27679578      12.90847592      -0.08132523       0.09370552      -0.08887503
B       12.24394013      15.49357187       6.91188259      -0.09688735      -0.18496719      -0.25747752
C        4.32581953       4.51443348       8.02440242       0.12850627      -0.18451732      -0.06996161
N        1.30063543      15.82742310       9.77563979      -0.02787891      -0.09941542      -0.01002626
O       10.86756230      10.77559547       5.29088768      -0.12863049      -0.12139910      -0.09734117
F        5.35849754       9.80212924       7.16596289       0.07673094       0.03671294      -0.10919687
Ne       6.62430018       5.09524953       3.63453637      -0.13323534       0.15325212       0.13156672
Na       1.51616649       6.27735050      15.44457463      -0.12756142       0.13878125       0.04582985
Mg       5.57734064       4.62391423       9.84230663       0.01006981      -0.10062009       0.12171400
Al       0.28498203       6.33686790       8.91210377      -0.34798273       0.03657470       0.00698479
Si      10.87834753      15.57423408       5.41993619       0.27824330      -0.41372117       0.39696056
P        2.91576245       3.87667540       0.17171077       0.07748125      -0.06850825      -0.01534802
S        3.08629142      12.73642023       0.16614996       0.22694413       0.11529253      -0.04255955
Cl      13.17523675       1.58142491       3.00859294      -0.19028640      -0.09552743      -0.07579473
Ar      11.01495834      14.02535758      13.09212949      -0.08637151      -0.09748653       0.02426050
K        1.92860192      11.92341842       5.48533167       0.09899330       0.10206629      -0.05192915
Ca       8.98431462      12.97499065       2.40974591      -0.09448411       0.17448585      -0.22268495
Sc      12.20716129       2.65914840       0.90291694       0.15223078      -0.15924013       0.17307270
Ti       2.85303329       5.63630863       8.53386291       0.11466405       0.13862178      -0.06734818
V        1.91156897       9.52879645      11.42500256      -0.03404468      -0.24210727      -0.13790756
Cr       7.56730092       6.66638836       9.26153297       0.13329297      -0.27307671       0.22336407
Mn       2.28977340       1.32092214       9.46623160       0.15385565       0.07684493       0.17453390
Fe      14.92413607       9.78898651       6.08355666       0.41821602      -0.66565204      -0.02859705
Co      14.62228787       2.35874014      15.65005675      -0.09188449       0.09706062       0.01893626
Ni       5.78282674       8.60352630       1.70072334      -0.11184756      -0.03008436       0.06070343
Cu       3.14547433       4.22902561      13.75649801       0.03326239       0.07729635       0.05762091
Zn       5.65912122       5.94787085       7.50998007      -0.26921821      -0.06275172      -0.10103980
Ga      15.55048826       8.37509998      10.79609705      -0.19966261      -0.10035898      -0.16171744
Ge       3.63332723       2.81573407       8.29669937      -0.11364657      -0.11870188      -0.05811545
As       0.18670365       8.65261208       0.53818235      -0.01770383       0.02207147      -0.01229662
Se       0.40500042       6.02100858       3.80706032       0.12137782      -0.23626412       0.07422240
Br      12.42952254      10.42051923      13.53949877      -0.03905644       0.18398415       0.05691487
Kr      14.07836132       3.63292628       5.64165506      -0.05291093      -0.01151061      -0.04725936
Rb      12.99882830       7.86078353      15.30106781      -0.06194462      -0.05172037       0.02953104
Sr      15.53164619      14.74961385       8.07904991       0.10405448       0.10612021      -0.17331669
Y       11.18260779      15.36670837       0.27472491       0.10678504      -0.03764886       0.09758422
Zr       8.00214078       0.04042373       0.73076372      -0.00425774      -0.00496817      -0.11010930
Nb       7.80920197       7.39024385       7.45881959       0.20068218       0.29084519      -0.25463873
Mo       4.70319679      14.00810758      11.89977903      -0.15939018       0.04726073      -0.05992736
Tc      12.61849253      13.69162374       5.76795825      -0.03524667       0.70332533       0.03306686
Ru      15.24646051      10.71945206       3.68035495       0.47481233      -0.69436204      -0.18138494
Rh      12.71361470      15.07353724       8.69581522      -0.05405837      -0.09037302       0.04624471
Pd       9.39231141       6.39341050       5.35704124       0.08909520      -0.06593770      -0.04144377
Ag       7.82246617       9.90158068       2.28369102       0.05229092       0.01201668      -0.04079010
Cd       1.38026766       5.25527695       6.26945964       0.05644462      -0.17659831      -0.23191848
In       4.70295978       0.51932233      10.33470829      -0.00771729      -0.13190264       0.06176086
Sn      13.71015214       4.34262038       9.42484585       0.20899969       0.27391627      -0.09097248
Sb       8.66758176       7.25359442      11.76676114       0.40268475       0.06101376      -0.11658807
Te      14.26801212      14.39963581       0.64439617       0.10451131      -0.04820788       0.07129441
I       10.60882240       6.88157681       8.13354632       0.01752064      -0.04380402      -0.26232335
Xe       9.16986542      11.41374214      11.56035054      -0.06839065      -0.18458821       0.31611884
Cs       8.17719937       3.59472991       6.56404827       0.18101466      -0.16256930       0.04953168
Ba       5.65736291       8.70132849       4.90987893      -0.12814230      -0.15891293      -0.03205660
La       0.53517802      11.47568238       0.96669534       0.05843744       0.02761969       0.04474419
Ce       0.07402901       8.17829077       6.46971440      -0.65012985       0.63522524       0.12914529
Pr       2.99971739       6.59403267      11.39357930      -0.05970883       0.19644111      -0.05228966
Nd      10.23064136       1.11758608       3.01304873       0.04423174      -0.05731899       0.30853325
Pm       1.86421323       1.66398568      14.50317873      -0.19080867       0.05703242      -0.02244704
Sm       7.39248576      15.08194696      12.23006768       0.06659430       0.16562425       0.11929104
Eu       5.30552005       8.76916177       9.18133679      -0.23954478       0.11993791       0.20977122
Gd       3.34650377      11.63090142      13.52176211      -0.06465167      -0.03533284       0.03109421
Tb       5.53817397      13.55794598       9.31138341      -0.01687886      -0.13723814      -0.03559113
Dy      11.01363424       2.20264440      13.31936923       0.08213549       0.33217126       0.02676606
Ho       9.81609468       9.02177071       4.45919724       0.07505038      -0.06775928       0.12326241
Er       3.28635967       2.93765968      11.42363286      -0.04948269      -0.16631624       0.16757280
Tm       5.16787857      14.39552865      14.91337404      -0.09873024       0.03471744       0.06054273
Yb       5.25134599      11.48113660       1.53650907      -0.00590473      -0.01780987      -0.01745967
Lu      10.19216863       4.92310700       3.23403762      -0.07187878      -0.02160153      -0.17931397
Hf      12.88455270      11.09816479       5.03035081       0.29163703       0.19340187       0.16559362
Ta      10.47598092      12.79025024       5.25430026      -0.04398727       0.06957608       0.18493330
W       13.80628740      12.39420591       2.53389626      -0.33656764       0.36687469       0.12572630
Re       4.97032122       5.91009815      13.32015523      -0.11707009      -0.17852493       0.32099187
Os       6.12154276       6.71417796      11.26538946      -0.40935585       0.24879885       0.04298902
Ir      13.96149015       7.00544272       9.60432326       0.50085497      -0.48510242       0.06018087
Pt      11.87780348       3.01608647      10.65660606      -0.18381141      -0.00131819       0.13593021
Au      13.25307930      12.03547413       7.75344224      -0.01761910      -0.06432624      -0.31393439
Hg      11.14238483       0.40776379      10.54127144      -0.14603460      -0.19295849      -0.31137809
Tl      13.45973127       9.31640966       8.41787315      -0.05633464       0.31454235      -0.13142402
Pb       0.88440671       3.56605988       9.53656826      -0.04094291       0.09830382       0.00367089
Bi       3.54077357      11.52366099      10.41837515       0.16909066      -0.15924759      -0.11777404
Po       3.57918407       8.65350420       0.49373626       0.07214998       0.18382904       0.01805057
At      12.21934762       7.38967319       2.95246945       0.00107218      -0.09408403       0.06440113
Rn      14.55974962       4.92697035      13.81988865      -0.14652696      -0.16382295      -0.02875595
Fr      14.61481996       1.25074012      11.74762330       0.09320140       0.05985403       0.01638166
Ra       6.98135848       8.74449970      14.53892242      -0.10299735       0.04146397       0.22098935
Ac       5.50940513       2.27782535      14.99028707      -0.02935797       0.33263245       0.01450264
Th       2.15319957      14.54868481      11.39232786       0.10306249       0.00309232       0.01252955
Pa      15.43358210       1.40270135       1.46299260      -0.67065912      -0.75658083      -0.18128575
U        2.39916502       8.34608983       9.76657533       0.36533359      -0.13673739       0.07327962
Np      12.31400784      13.84792798       3.42581763       0.30553496      -0.12053066       0.03699130
Pu       4.84608611       5.81466727      15.58156174       0.03578944      -0.08195595      -0.15454875
Am      15.74125449       8.60010098       3.20201444      -0.26820919       0.65849072       0.02436227
Cm       9.57438121       1.58820309       1.00536053      -0.09126997       0.12122184      -0.41505331
Bk       7.34821510       4.69395507      12.63749361       0.13075587      -0.16222394      -0.08006494
Cf       0.72078011       3.39367441       1.82936837       0.51077378       0.80344677       0.16476509
Es      11.86529602       1.92636387       7.92625914      -0.05897112       0.03462636       0.07932863
Fm      10.54924585      13.76623584       8.04264280      -0.03048772       0.29876125       0.03973261
Md      11.49682317       5.96612093      10.99131840      -0.02698832      -0.03951991       0.10429364
No      11.83324417      11.62152495       0.26709823      -0.03500622      -0.03842916       0.10690325
