102
Lattice="15.797047940415442 2.96875089574642e-14 -4.33975389478638e-19 1.835327498130222e-13 15.797047940420502 -8.919888842276921e-17 3.261225643276977e-17 -2.871585935116928e-16 15.797047940414783" Properties=species:S:1:pos:R:3:forces:R:3 energy=-493.9559326171875 stress="0.001999136758968234 0.000453529239166528 5.684314601239748e-05 0.000453529239166528 0.002252324018627405 -0.0001652187784202397 5.684314601239748e-05 -0.0001652187784202397 0.0008402878302149475" pbc="T T T"
H        9.61742436      10.28551430       2.36682530      -0.18168968      -0.10338777      -0.04002003
He       8.70514415       3.17586760       5.36390808      -0.07419497      -0.11588430      -0.02606698
Li       6.57119931      14.33497842      10.07617795       0.02870690      -0.04270867       0.02971344
Be       3.56164028       1.82632793       1.44928392       0.21385813      -0.05846837       0.01816726
B        4.16099295       0.12155852      12.34926364       0.19037628       0.14592172      -0.18229440
C       12.95841307       0.00668331       5.27952679      -0.09853688      -0.27814108       0.14540760
N        0.97291523       6.24866480       9.92855504      -0.46279728      -0.06747971       0.01838654
O        2.47693413       8.12289487      11.62611044      -0.06304419       0.14364898       0.07984583
F        0.85940167       8.94616853      13.95811014       0.05635136      -0.03113045       0.04420274
Ne      10.20882976      11.68713714       7.02936533       0.02486259      -0.16005257      -0.14907312
Na       2.67384426      10.01290461      12.98984674      -0.02719762      -0.17674549      -0.07476962
Mg      14.37351015      10.01849585       2.83219958      -0.15553236      -0.54167104       0.03390584
Al       3.76698433      10.24253982      10.04579952       0.01214300      -0.11006220      -0.09614524
Si       0.42371651      13.92719169       3.80703310      -0.18392451       0.10966843       0.04056562
P       13.65759444       5.59440149      11.29472522       0.02312094       0.10114412      -0.12683596
S        0.94284940      12.43667930       7.31685494      -0.06493562       0.16640729       0.24835211
Cl       6.03718470       0.75696684       4.25241116       0.02507716       0.00845951       0.08140348
Ar      13.49988897      11.13454883       8.03308788      -0.08906327      -0.10706660       0.00933123
K        7.47603559      11.25220137       2.44611629       0.01872143       0.02591148      -0.03956466
Ca       3.40945339      11.16414638       0.91803505      -0.21411306       0.03265405       0.05486080
Sc      12.40740281       2.73667263       2.14979713      -0.21110141       0.05946924      -0.14496656
Ti      11.35916559       1.05918984       4.32735740      -0.26841542      -0.44139984       0.12089160
V        2.97202302       3.95208532       0.63239416      -0.54063809       0.10592139      -0.03997225
Cr      13.89633215       6.69235409       3.89912442      -2.05201101       1.22223759       0.51543021
Mn      15.41727120       5.68167876      15.29561380       0.26100588       0.06785518      -0.00495505
Fe      12.76952730       3.57478263      15.76214826       0.05435563       0.18117659      -0.02943131
Co       3.25478421      10.32206201       3.75705034      -0.20681602       0.09921370      -0.03117043
Ni      11.07041304       0.65349326      12.83142537       0.05280632       0.02547692      -0.09347139
Cu      15.52256561       3.36665330       7.18446169      -0.05961577      -0.21103474      -0.01539157
Zn       3.52506098       3.11534995       3.72049147      -0.15316224       0.11978710      -0.03282002
Ga      15.59109726      14.35027163      11.24410885       0.08644697      -0.03439508       0.01903164
Ge      15.77851853       6.88866948       6.19468030       0.05647555      -0.36643040      -0.07672679
As       4.15697120       5.64389039       4.37976306       0.06753018       0.08477956      -0.02928495
Se      13.02783567       5.95603351      15.20283317      -0.20988588       0.11615430      -0.00662060
Br      11.52279784       3.53029704       8.07731887      -0.01964405      -0.08905806      -0.01989925
Kr       1.41611418       2.61929744      11.06141704       0.21787168      -0.00027459       0.12480503
Rb       4.85334796      13.62358547       4.01383193      -0.02106025      -0.00293788      -0.06542001
Sr       5.07036293       1.97332828      14.29377324       0.02420448       0.05558001       0.01281128
Y       14.36135838       0.21778436       3.38540268       0.17819706       0.00086986      -0.08814679
Zr       1.92674310      13.81693491       9.22891626       0.06540564      -0.06572680      -0.23298788
Nb      11.20373671      15.66308491       6.56999049       0.05372661       0.16074075      -0.36099064
Mo       4.31906500       0.91335419      10.62116443      -0.07116958      -0.29489431      -0.01727025
Tc       1.20294224      11.78780980       2.98266824      -0.00811817      -0.17907004      -0.48871136
Ru      10.22349194      13.49680659       1.74829141      -0.04098138       0.13655952      -0.01513097
Rh       9.97806490       5.91787853       6.53634336       0.14908406      -0.11839519       0.18789804
Pd      15.67340643       8.58827110       4.48061641       0.12403667       0.45498765       0.10076922
Ag       6.57091368       0.24629600      11.97421160      -0.01193655       0.06578094      -0.07510182
Cd      10.83069528       6.53077717       9.32797411      -0.06740665       0.01516847       0.05595725
In       6.38185455      10.82165858       8.59140055      -0.11375919       0.19281781       0.05584514
Sn      11.89054640      15.67041364       1.51019267       0.01124334       0.00459233      -0.17329580
Sb       4.30179510       8.39382239       8.06526422      -0.10583900       0.09594844       0.00548044
Te      15.04001215       3.14487587       3.17660277       0.46313927       0.43976691       0.06177990
I       14.74677014       0.89336968       8.65816342       0.14049412       0.03861858      -0.09047485
Xe      10.52581002      11.26333470      10.41898386      -0.05247431       0.01410368      -0.02145170
Cs      10.34132933       6.35206791      13.13639284       0.10816282       0.04124437       0.02391746
Ba      10.84550631      14.01074988      14.26746514      -0.04472338       0.08884314       0.00319606
La       7.66929486       7.74184214       8.46169106       0.11228997      -0.12145250       0.08452600
Ce       0.50288002       7.41427930      15.69374290      -0.08683184      -0.28966209       0.11138868
Pr      11.64882785       2.21544574      14.94710374      -0.18390365       0.12859473       0.04621070
Nd      12.97098112       6.06732552       7.01561125       0.06493506       0.10771073      -0.13993907
Pm       1.48140807       5.43636454       3.06487050       1.63080215      -1.32962179      -0.74727190
Sm      12.89946497       0.28490419      11.11035363      -0.07633007      -0.06778719       0.08468181
Eu      11.84827790      13.53053216       4.62377854       0.05187397       0.16788799       0.02225527
Gd       3.93765342      13.42458798      11.87229976       0.04286292      -0.04616827       0.15754443
Tb      14.75407136      14.53540029       6.43941394      -0.09874654       0.08009778      -0.00527275
Dy       6.34712995       3.72778028       4.23288709       0.09300023      -0.07779658       0.08010663
Ho       8.83752448       1.88454653      12.86950491       0.00419436      -0.03933813      -0.16513851
Er      14.24006090       3.93685648      13.38390627       0.11018866       0.02938912       0.04247345
Tm       2.63782593       8.13283985       5.45413204      -0.09170911      -0.09384342      -0.02326398
Yb       4.82349802       7.96738690       2.63791553       0.06188747       0.15681793      -0.07458387
Lu      13.20871101       2.16926777       6.26144961       0.11484599       0.07117108       0.29898700
Hf       3.23962192      11.24863037       7.28769737      -0.01219446      -0.16662391      -0.06467172
Ta       8.69564117      15.54677441       8.15003982       0.12564185       0.14089569       0.39073312
W       14.60220925       4.80589594       5.28704661       0.01654178       0.00059339      -0.05648994
Re       4.27074889      12.52873093       9.18312966       0.19043311       0.04080224       0.20354088
Os       1.62687164       2.47721124       2.24513576       0.05197927       0.18920848       0.06023970
Ir       4.16753876      15.01934131       8.99446258       0.03261498      -0.00588086       0.12275556
Pt       9.69912077      15.02551983       3.79110837       0.07304934       0.09486103       0.14856870
Au      14.04299310      14.45103901      13.24394812      -0.02902149       0.07272706      -0.00813230
Hg       9.56202312      15.59263125      10.78928893      -0.03977889       0.00290233       0.01585738
Tl      11.72263805       4.39828031       4.54179696      -0.17680183      -0.02924554       0.04905295
Pb       6.33094099      13.93560777       7.36325508      -0.14453626      -0.19231358       0.17244600
Bi       1.58835176       8.99186388       2.35038055       0.01336544       0.14510763       0.12057440
Po       5.43089008      10.30870114       5.03838524      -0.01000747       0.03339483       0.09185609
At       8.11539112       3.74152975      15.29731204       0.16376339      -0.08067140      -0.02102152
Rn      13.37180390      10.19983497      13.36386986      -0.04185236      -0.04709345       0.10899442
Fr       1.78321354      15.32714810      14.46185989       0.05141057       0.08798599       0.05368662
Ra      14.72120337      13.23148345       0.69789423      -0.11371778       0.06088415      -0.01621631
Ac       0.36307988       7.21920984      12.08408801      -0.32312363       0.04356265       0.25161898
Th      11.23371792      11.55008790       2.06762719       0.24390177      -0.43803927      -0.12154321
Pa       8.34909835      15.76408618       5.82589454       0.10304639       0.12456203      -0.30782497
U       15.22862016       5.61587472       8.90846086      -0.31384423       0.07089466      -0.33857423
Np       8.14062191       6.82269883       5.94009270      -0.05798268       0.16211429      -0.09850959
Pu      13.97057474       3.84064004       9.47465048       0.10982771       0.02664350       0.08692598
Am       1.07564478      11.27543574       4.98052414       0.06764482      -0.07757309       0.15588513
Cm      13.74170885       5.78926951       2.23142795       0.46514416      -0.10688666       0.24353850
Bk       1.11442652       4.24468886       0.08517816       0.14553368      -0.04536200       0.19454437
Cf       2.19388658       0.37421151       3.46451425      -0.11652857      -0.15471077      -0.03018764
Es       3.03135279       6.72813313      10.18269889       0.80038947       0.08352628      -0.19698912
Fm       5.90298827       7.26135484       5.87763551       0.03340185      -0.05010729      -0.06670240
Md       1.99575952       4.50960712       6.08895780      -0.05930375      -0.00337866      -0.04132542
No       3.99661213       0.89413457       6.71893205       0.16802704       0.31612813      -0.07882839
