102
Lattice="15.80027420539307 -2.120750116573597e-19 -8.415500584985906e-20 3.133711371622223e-17 15.800274205405579 -3.0821837043200503e-12 -2.2516999269515675e-17 -3.0482192997802952e-12 15.800274205396414" Properties=species:S:1:pos:R:3:forces:R:3 energy=-497.49835205078125 stress="0.005327467806637287 0.0014725678483955562 0.001595761626958847 0.0014725678483955562 0.002672820817679167 0.0008536048117093742 0.001595761626958847 0.0008536048117093742 0.003105586627498269" pbc="T T T"
H        2.44783652       0.67862668       1.88107960      -0.18164924       0.07671039       0.02848159
He       2.67388468      10.43631433       2.14285070       0.02829960      -0.00600702       0.15358210
Li       9.48809516       1.08120944       3.45932597      -0.00609149       0.04851900      -0.00484367
Be       7.24104282      11.94414006      13.28979217       0.40265039       0.14161277      -0.15271121
B        5.63197656      11.28892442      13.94453485      -0.28419507      -0.04820544      -0.08208027
C       14.66345315       5.47084748      14.42153519      -0.14066136      -0.06472647      -0.23050174
N       11.71481505       5.00734482       6.05300717      -0.28578767      -0.30505475      -0.21397585
O        8.93287804       2.38314187       2.32088043      -0.39007413       0.18376911      -0.02712184
F       11.34604210      14.27979382       7.12597401       0.07399921       0.03560880       0.21085905
Ne       9.08277462      14.87206676       9.49921152      -0.01600152      -0.02095576      -0.06439789
Na      11.62112845      15.44160759       9.04654143      -0.12175765      -0.00035626      -0.04893751
Mg       7.66308486      15.41737115       4.58085073       0.01064682       0.04721567       0.12061873
Al       1.70480656       0.37463835       9.93076037      -0.03592507      -0.14344548      -0.11107777
Si       2.89111897      15.72561305       5.33550307      -0.17142427       0.04067173       0.21052709
P        2.31953326      13.89348545       9.28416110       0.39587957       0.09620067      -0.36176127
S       11.34460625      11.31420263       1.16356029       0.14871204      -0.09004095       0.05333894
Cl       8.64869233      13.19632690       1.03442257      -0.05688545       0.04527757       0.17000154
Ar       3.40603300       4.04957892       0.50154752       0.49012670      -0.37591279      -0.09624615
K        0.21448877      11.34466698       0.74395245       0.00240546       0.35384551      -0.21192281
Ca      13.47903318      13.94879984      14.57998981      -0.05655233      -0.12624973       0.30763170
Sc       5.44248757       9.00949256      14.70838339      -0.13267368      -0.07265757      -0.23965640
Ti      11.26556537       0.62033952       0.14367949       0.08765891       0.14614126      -0.35393071
V       14.39149407      11.44510800      10.50517992      -0.14539522      -0.13763815      -0.06451327
Cr      12.96606442       9.70170540      10.17528097       0.06933844       0.32378507       0.25452954
Mn      10.74581708       2.43819607      13.68984740       0.44304082      -0.01489347      -0.10091483
Fe      13.47574243       7.83266470       1.71365765      -0.10767728      -0.17625895       0.02831739
Co      12.07555604       2.73203195      15.58310061      -0.21982293      -0.14052644      -0.06896291
Ni       1.02482748       8.92279121      12.97037945      -0.14555928       0.01940913       0.03660632
Cu      15.57521134       8.82459737       2.12411773       0.04982504      -0.13933349      -0.06723738
Zn       9.03965176       2.40879201      11.07746766      -0.35903388      -0.08156902       0.19187021
Ga       3.05268467       8.42942517      11.93918412       0.24535286       0.16796169      -0.05015479
Ge       3.84683020       1.51029791       9.08189287      -0.02394174       0.18481064       0.46729141
As       9.41886028       1.41960784       6.07210874      -0.00570252      -0.18607849       0.08406892
Se      14.58702560       3.38002842       6.41073061      -0.23502824       0.56464618      -0.32555896
Br      11.05615555       8.93585613      14.05896356       0.04895677       0.01916668      -0.02004977
Kr       2.71803088       3.62058368       3.96917745      -0.06251854       0.16209614       0.04808877
Rb       0.51885158      13.03212133       4.52455550      -0.12384060       0.17449227      -0.05335683
Sr       0.88845933       3.12847324       8.45938491       0.20563945       0.07571123      -0.14685766
Y        6.10252008      12.42879883       0.38864017       0.04501265      -0.21396318       0.08052872
Zr      13.43269440       3.85091121      13.70277156       0.09133481       0.00133109       0.00778333
Nb       3.56924884      15.24537334       7.70491281      -0.34027067      -0.36207390       0.01973100
Mo      11.60782572       1.97615199       4.80124686       0.59028411      -0.56108010       0.05892235
Tc      11.14250496       3.83970302      12.27331260      -0.13089192      -0.30468902       0.17025989
Ru       7.42946383      10.36353424      14.80805945       0.00776744      -0.01661870       0.38489795
Rh      12.64018546       0.78922873      13.81503703      -0.35705233       0.29440886       0.02638000
Pd       6.00347458      14.85254589       2.12993721       0.19496804       0.07303402      -0.20186692
Ag       9.17996697      12.47268193      11.88539754      -0.09682356       0.02415657       0.20963219
Cd      10.98823114      14.85505376      12.28526933       0.37865999      -0.10978311       0.09527268
In      14.67118942      10.53812837      13.11991330      -0.02918619      -0.08181581      -0.00308105
Sn       3.08260426      14.92120336       2.48706311       0.10988735      -0.10363220       0.11610390
Sb       1.26085340      11.08836136      10.99211193      -0.05385316      -0.41393700      -0.19078806
Te      15.04223079       3.25993378      11.24102985       0.11792123       0.04588452      -0.02184152
I        2.13174726       5.92503815       9.59937720       0.09557903      -0.04848512      -0.09949091
Xe       5.42494233       4.58891802      11.76284486      -0.10118014       0.11042751       0.07053033
Cs      11.97027984      11.45318095       6.83577841       0.09710596      -0.16086736      -0.14946140
Ba       9.04831123       9.23681760       1.09401826       0.07631239       0.06946123       0.20418149
La       9.65778635       3.64820116       0.51036114       0.11229998       0.06273037      -0.09755360
Ce       9.34324789       3.95785596       4.38946724       0.32640302       0.11591321      -0.17127675
Pr      14.14459789       7.66241808      14.57418756      -0.05323622      -0.12534142       0.10326108
Nd      11.74934024      15.64986940       5.49825002       0.05071746       0.58008623      -0.28704962
Pm       6.64279616       2.27021033       2.87665975       0.04527798      -0.19139926       0.02843693
Sm       0.08714980       8.33701997      10.49825968       0.08587268       0.13117111      -0.12707579
Eu      12.79898327       9.90155531       2.85003956      -0.01309854       0.03222209       0.14865619
Gd       8.49309301       3.17910575       8.10488866      -0.28465796      -0.16491556       0.08210671
Tb       8.27070693       0.15782225       0.91291876      -0.13240939       0.08770853      -0.37094021
Dy       5.44681482       0.61100101      13.99099849      -0.02376582       0.52916867       0.08955571
Ho       1.01999664       8.09002948       4.53157183      -0.30702576      -0.17493737       0.11681159
Er       9.96188508      11.95701337      14.69572755      -0.01670839       0.07540007      -0.10424577
Tm      11.17452022      13.88131928       1.88542379       0.07345851      -0.07986058      -0.20526183
Yb       5.28192285      11.03881824      11.11807653       0.07591125      -0.08973426      -0.20511416
Lu       4.94684230      13.54663190      13.29566420      -0.28309602       0.02674776      -0.28353095
Hf      12.57048638       1.78902068      11.53029164      -0.05909535      -0.13283706       0.35870296
Ta       4.10661892      15.18478007      10.80532309       0.12551087       0.02719167      -0.04640269
W        0.54508656      12.89923609      13.20407789      -0.18102598       0.11017044       0.02286536
Re       5.08091148       0.03524424       4.24794117      -0.07112831       0.51380944       0.29634562
Os       7.51371539       2.79536761       5.30624835      -0.10975403       0.00884476       0.01177080
Ir      12.91611178      12.77509615      11.92577901       0.12781276       0.10527083       0.05275929
Pt       5.50630380       8.37614760      12.20487886      -0.34872013       0.05570829      -0.02277057
Au      11.01833503       2.80896758       9.66103781       0.06322382       0.05764890      -0.61695397
Hg      11.17692010       7.94032364       4.60893458      -0.13010569      -0.11071283      -0.16887783
Tl      15.28432654       0.79419819      13.34887000       0.07777125      -0.10845600       0.05410897
Pb       2.43112155      13.89910897      15.40290750      -0.08664079      -0.12721959      -0.02747091
Bi       8.12994415       2.30473776      13.59890436      -0.05482104      -0.14905958       0.15239644
Po       2.16660431       8.23583148      15.32090934      -0.00595608       0.04106444       0.18771610
At       2.50254937       9.33798419       6.93831730      -0.07079035      -0.09760544      -0.06683943
Rn       4.62979175       7.85960446       3.19597934      -0.03069709      -0.00698438      -0.02629647
Fr       5.91301755       7.48130538       8.95086176      -0.12771100      -0.00438270      -0.03197232
Ra      15.62088344       2.43366993       0.74452773       0.15001953      -0.09941333       0.03909984
Ac       0.96096274       5.62343580      12.99583763      -0.00806794       0.02404693       0.19893348
Th       2.91677875      11.06456197      13.79472628      -0.29235190      -0.20351495       0.21755210
Pa      11.81077806       3.13991240       7.00420779       0.19728555      -0.23872656       0.04801962
U       11.83543357      10.82806818      11.25882731       0.12852585       0.11371768       0.05204654
Np      13.24552421       5.59431137       4.95035456       0.14525560      -0.04855591       0.08934069
Pu       2.00797507      13.85014591      11.82570314       0.10085753       0.28754604       0.14164641
Am       4.92057402      13.75191239       5.05074536       0.23753548      -0.23337317       0.03809801
Cm      13.93929098       6.74587934       3.32303175       0.07648039       0.07711387       0.20602220
Bk       6.30295888       1.15737452      10.63053985       0.10498878       0.14012608      -0.09832771
Cf      11.91105767       1.55139243       2.06447681       0.09010482       0.01071526       0.08636451
Es       2.39330196       0.05077901      12.89453537       0.01311355      -0.12980638      -0.05450970
Fm      15.54833777       6.39758494       0.57392608      -0.26243356      -0.08474430       0.12047398
Md       5.56413801       1.22930344       6.69827944       0.18897063       0.24735706       0.20266658
No       8.25830479       9.06303921      12.51438496       0.26599199       0.12060165      -0.18002339
