102
Lattice="15.780223327717684 -5.062761433265341e-12 3.1937952586036038e-12 -5.379031928936556e-12 15.780223327716467 9.59187833149378e-13 3.208013204157547e-12 4.462413206182659e-13 15.780223327712994" Properties=species:S:1:pos:R:3:forces:R:3 energy=-488.72015380859375 stress="0.0019534998573362827 0.00039435677172150463 -0.0034227073192596436 0.00039435677172150463 0.0022785260807722807 0.001080164744053036 -0.0034227073192596436 0.001080164744053036 0.008136232383549213" pbc="T T T"
H       11.44331210      14.05995545       3.58369167       0.04174434       0.33540219       0.01445995
He       8.36286813       9.48823993      11.20929923       0.00366634      -0.13078046      -0.01326047
Li       2.00599623       1.11684284      10.34907230       0.04185302      -0.04339276      -0.13005811
Be       1.12256745       9.28263146       8.38469196       0.11949104      -0.01883881       0.04103390
B        2.66331891       9.02697419       3.99647670       0.23589158       0.42720217      -0.20566466
C        8.37735704       4.77092909      14.18730801       0.64414966      -0.29040250       0.43098578
N        4.84102165      15.18326971       0.72806129      -0.07659072      -0.12059480      -0.04089049
O       14.79441935      10.74073329       5.62585981       0.08183071      -0.32976854      -0.09218007
F        8.22089486      11.25488907       4.02179549      -0.14503883      -0.21156850      -0.15294504
Ne       4.66106328       3.85392829       1.60718933      -0.01928705       0.01723337      -0.01800722
Na       6.63967002       4.65382087       4.88185841      -0.44420403       0.11508851       0.03982510
Mg      13.10950239      11.33733517      10.56048635      -0.13213629      -0.09667507      -0.11437943
Al       1.18594430       8.58004915      11.15322237      -0.15920164       0.21912199      -0.45441443
Si       3.84806806      12.46644965      13.04387490      -0.05200589      -0.16050279      -0.01228133
P        5.37716271       2.34875911       8.06531318       0.36339188       0.11477000      -0.22227475
S       10.87953569       6.88180931       2.27723416       0.02617695       0.11454408      -0.18130644
Cl       8.86998939       4.40615488       6.01939829       0.34701097       0.21569279       0.21740317
Ar      13.31063402       8.19397635      14.88077302      -0.04562247       0.16485977       0.05350094
K        4.44507389      14.62497874      10.71642243      -0.22905943      -0.04067227      -0.31341285
Ca       3.40266001       9.08472600       0.54442820      -0.12610133       0.06398332       0.31938559
Sc       0.50097916       8.96929241       3.85899908      -0.27678359       0.12170631      -0.01702893
Ti      10.46898477       8.52155701       4.26582585      -0.50754201      -0.19861682      -0.30914003
V       12.00568402      15.70738102       4.39117267      -0.39298069      -0.45323938      -0.07638443
Cr       9.00877872       7.78431940       3.54332904       0.38619089       0.17919981       0.31482637
Mn       1.70951893      12.65430452      12.28674648       0.15563124       0.12501776      -0.25016376
Fe       0.20122116       3.56336305       7.51373061       0.06622693       0.16515318       0.12657733
Co       1.91741068       1.93707359       7.30858083      -0.19454765       0.21118727      -0.01456889
Ni       6.04912224       6.02041980      11.72789727       0.19842839      -0.00717618       0.75670123
Cu       2.86512795       0.59337866      12.93362590      -0.02303919       0.00131556       0.22881024
Zn       1.55887009      14.11357782      14.42010201       0.07607687       0.01580502       0.29011026
Ga      15.75721149       1.43210111       8.65436981      -0.26547924       0.10086915       0.16364047
Ge      14.89619122      13.30640265      11.24463333       0.14914212       0.38941920       0.00539687
As       5.13242555       6.85801737       0.11578055      -0.25436723      -0.05863978       0.08364376
Se       4.46078672       6.15798083       5.97614188      -0.05823058      -0.03759319       0.04963016
Br      10.86371373      10.95999348      11.58296134      -0.34068531       0.13802290       0.04422149
Kr       8.67390843       0.14913366      14.28648059       0.02624101       0.08659662      -0.17182873
Rb      10.38013771       3.88199553       3.33285661       0.09604792      -0.30862096      -0.18297568
Sr       9.84006400      12.76647255       4.60530663       0.26763988       0.29154602       0.06443831
Y       10.03385493       5.72756443      15.65922558      -0.19573934       0.08250448       0.20406845
Zr       6.41034314       1.28037464       4.08458063      -0.13216120      -0.10644145      -0.04900801
Nb       4.20875628       2.17714167       5.84465908      -0.00036854      -0.09006020      -0.03596059
Mo      15.61863639      10.87129026      11.68951178      -0.16257560      -0.55553377       0.10892966
Tc       0.60479570       7.95680185       6.49845708       0.02041513       0.11013621      -0.04816943
Ru       7.78741186      14.40667625      11.25747361      -0.35571158       0.28070956      -0.15508169
Rh       1.05022646      15.04752922      12.02071397       0.07494622      -0.40426469       0.18279493
Pd       3.98619795       4.81033406      11.31573826      -0.06457508      -0.07316533       0.23705091
Ag       2.37497289      11.23512019       3.62758206       0.00144218      -0.35840961       0.07144918
Cd      13.00091773       5.33552643       1.55392323       0.20272171      -0.11263521      -0.18228766
In       9.01834268       0.23224093       4.79624767       0.20674568      -0.15444121      -0.00599403
Sn       0.17765401       1.88457253      12.45913358       0.08337723       0.24061319      -0.05149952
Sb      13.10453051       2.85178614      13.14376463      -0.10291623      -0.13091902       0.51042128
Te       9.12451871       8.21197797      14.22697704      -0.16738331       0.27148628      -0.05947654
I        7.88595647       2.61680101       1.01035462      -0.15049788      -0.00425813       0.18993807
Xe       5.64242542      11.12122110       1.95171591       0.03367056       0.19775653       0.03061989
Cs       6.42974026       2.30201996      11.60058942       0.15944602       0.22009960       0.03214839
Ba      10.09610844       0.12302659       1.58792120      -0.12286782       0.17028393       0.07465289
La       6.69096869       0.00674198       7.34030679       0.45622742       0.29892975      -0.03024825
Ce      12.67686655      13.81846924       1.78098040       0.20275860       0.25691903       0.28273815
Pr       5.18516955      14.88202201      14.45475669      -0.18827015      -0.16864759       0.11592336
Nd       0.57552274       6.36132677       7.81676955      -0.08828333      -0.42361778       0.14299190
Pm      10.23912099       9.22576197       1.03314788       0.15156177       0.16076212      -0.27951759
Sm       0.98638532      11.40688725       6.27074805       0.51909918       0.22369841       0.29389098
Eu       3.80198493       6.92168073      13.34229683      -0.01000395       0.04308459      -0.24177170
Gd       3.35804335       6.83071731       3.38100118       0.05613243       0.06084123      -0.16306905
Tb       3.47321221       4.11476716       8.23885853       0.11013392       0.06418315       0.23628590
Dy      14.37547206       1.59562895       5.91721001       0.12038273       0.15487364      -0.20361796
Ho       9.96413947       3.23660872      13.69905047      -0.05901644      -0.45251423      -0.35499164
Er      13.58823984       2.17593295       0.62790118      -0.00636232      -0.09038362      -0.00080992
Tm       1.39196456       1.28338846      15.27439407      -0.14880586       0.09782009       0.24691048
Yb      13.89377956      12.78611609       4.98334712      -0.02179512      -0.12741750       0.03742152
Lu       3.18064338       8.57005366       6.34597414       0.55404961      -0.27075982      -0.26705688
Hf       7.68416356       9.36381282       4.55831026      -0.13523629      -0.27819124       0.47075084
Ta       0.52106339       0.23546801       3.45162809      -0.01795818       0.05752307      -0.14380962
W       15.11746275      15.73903343      10.65154256       0.04808891       0.31882751      -0.32856119
Re      15.24396480      15.50638173       1.16673766       0.11629739       0.20333168       0.12428212
Os       6.03185949      13.24919728      12.96191086      -0.16649303       0.12404609       0.05720578
Ir      11.92300408       3.88884349      15.33696312       0.22942877       0.01512086      -0.24357150
Pt       1.32935299      13.66098521       4.29210376       0.05870961       0.35132092       0.05370139
Au      15.01007503       9.55375682       9.40406647       0.06122658       0.23073003       0.10921881
Hg      12.04405567      10.82743954       3.00385786       0.00697041      -0.04734743       0.17302459
Tl       1.94595416      10.14365645      13.72900204       0.13194537      -0.11825626      -0.24043612
Pb       3.03554341       3.17585868      13.34155265       0.18937126       0.28229317      -0.19576177
Bi       3.53148851      15.70909073       7.68002321      -0.49194533      -0.46735483      -0.32441354
Po       1.43621931       5.87538243      11.04420730      -0.16338089      -0.15243304       0.02794829
At       9.17138924       0.60821430       9.53366662       0.01395229      -0.05339542       0.11543045
Rn      10.65562834       5.98762068      11.04330128      -0.02145904       0.10628061      -0.08761337
Fr       7.24851743       6.60096544       8.30899898       0.04536793       0.23255718      -0.20886391
Ra      14.88983974       5.27736854       4.69823634       0.01308303      -0.19680792       0.01761593
Ac      14.57635810       3.90571591      10.07474410      -0.06410950      -0.26801348      -0.08584504
Th       0.17535910      13.05880807       1.77387099       0.32444632      -0.45367810      -0.38140932
Pa       3.43879774      15.58736319       4.20962759      -0.04480085      -0.01088458       0.17965548
U        6.94693660       6.06818884      13.90016817      -1.15220499       0.67431951      -0.66217297
Np       1.86774149       1.45811370       5.26345563       0.16214374      -0.20249783       0.30526125
Pu       8.27478085      12.54556251      12.04168043       0.33175272      -0.84970891       0.08621665
Am       1.57322766      11.55658512      10.65314959       0.45985141       0.24788111       0.09648156
Cm      13.46478835      15.66198580       3.07401086      -0.30749136      -0.15280049      -0.12677392
Bk       5.89326520       0.42217212       2.00597389       0.08006153       0.01297185       0.62590468
Cf      13.90709357       9.18033149       6.73843261      -0.46093801       0.25577933      -0.28708774
Es      10.33749535       2.05049002       6.75053570      -0.04237086      -0.02441771       0.04606669
Fm       2.80234695      14.58221476       1.37760714       0.27255857      -0.06002164       0.15876931
Md       0.39405552      14.57825669       7.68086440       0.03011258      -0.09027731      -0.22742723
No      14.26038343      15.33112555      13.91058856      -0.06668448      -0.20478351      -0.24488771
