102
Lattice="15.384679210196339 9.68027235684873e-14 -5.177113749752891e-18 1.4363716638273004e-13 15.384679210212227 -6.130095868875528e-16 -1.891856666241006e-17 -1.4670157049041223e-16 15.384679210200524" Properties=species:S:1:pos:R:3:forces:R:3 energy=-490.8170471191406 stress="0.005864209029823542 0.0007497535261791199 0.00011153738159919158 0.0007497535261791199 0.007046826649457216 0.0007917307375464588 0.00011153738159919158 0.0007917307375464588 0.002756034256890416" pbc="T T T"
H        4.28295206      15.36116061       7.08855404       0.19749822      -0.09728981      -0.06148498
He      10.72762880       6.12850564      13.82841824       0.00043252      -0.21767339      -0.10136062
Li       2.14215383       5.44998989       2.66543551      -0.11132659       0.18656972       0.22989933
Be       8.65291449      13.28659185      14.79564593       0.12970361      -0.21486317       0.21328300
B       12.66656501       5.66658240       2.35297621       0.24960120      -0.36823359       0.78397715
C        2.20646308      11.51127052       4.95285052      -0.82001889      -0.53289491       0.00328898
N        1.79532247      11.83322252       0.38628720       0.01757428      -0.00133580       0.09705965
O        3.56958735       9.41633781      14.94054325      -0.28334135      -0.74390662       0.05783698
F       14.49113856       8.04921746      10.36953911      -0.57929444       0.11266252      -0.09628549
Ne       0.95592214       1.31207791      14.69271327      -0.01790635       0.15979141      -0.06272781
Na       7.54377116       8.07039113       7.12709786      -0.28493473       0.15011522       0.09756530
Mg       7.63939437       0.08909358      11.50305786       0.07304294      -0.34830093       0.17086849
Al      10.28163883       8.94227659      13.78941340      -0.03566892      -0.09226129      -0.19099467
Si      13.42889425      14.25907524       8.12265521      -0.02076793      -0.04305353      -0.22896025
P        8.57789242       3.46320450       9.20955431      -0.05155718       0.28818762      -0.02420327
S       13.67429600      11.30824751      13.04358602      -0.11615631      -0.14299196       0.10815445
Cl      10.59126788       1.61576417      13.75118527      -0.07464157      -0.18159437       0.18241787
Ar      14.69592986       4.61475887      10.74113174      -0.01406892       0.02233558       0.00921338
K        6.25697411       2.96567015       6.70007337      -0.12835604      -0.08737931       0.01399056
Ca       4.59394001      11.13026381       0.14457749       0.37473881       0.28599569       0.03634350
Sc       0.28930988      10.58349763       5.06467193       0.43453050       0.56562316       0.08319006
Ti       8.11739781       8.17522319      15.36596923       0.02205926       0.02190173       0.03948860
V       12.94312216       5.40771112       0.32108737       0.36643985      -0.17175326      -0.47945130
Cr      12.41371307       3.54759775       1.95621466      -0.23535466      -0.16796279      -0.34472281
Mn       3.86149788      13.02621587       2.38522154       0.47530463       0.48192805      -0.05349626
Fe       5.02701984      11.09904549       3.56119047      -0.15075514      -0.33032185       0.54765660
Co      14.12971133       6.91122751       5.98059999       0.21840036      -0.26436913       0.01907280
Ni      10.25904718       8.00312004       8.25790280       0.26849258      -0.09634607      -0.23694524
Cu      15.01286079       8.11298400       4.04959778       0.17315230       0.13987544       0.20301905
Zn      13.36722082       9.09851228       5.48112653      -0.09891385       0.39967722      -0.24312979
Ga       7.35465690       3.06885735       0.63856714       0.25427601      -0.05228467       0.16123673
Ge      11.89542309       2.93006321       6.51448274      -0.35853577      -0.05526966      -0.01788224
As      13.70852807      11.27538688       9.67958492      -0.22154436      -0.24090296      -0.18955262
Se       4.66341267       6.72577685       3.14059779       0.11152290      -0.22961423       0.11952445
Br       1.73808839       6.22877375       0.47062076       0.02453568      -0.48539981      -0.19518970
Kr       5.64300472      10.18547977      12.77050044       0.22563887       0.07136717      -0.18623158
Rb       7.35376160      13.88437185       4.24359612      -0.05600103      -0.29192966       0.04162459
Sr       3.47762966      13.78797440       5.36236265      -0.01357283      -0.05248177      -0.13508399
Y        0.48204391      12.46062234       7.96733475       0.21907303       0.10757589       0.00427334
Zr       6.82748895       4.98039980       2.88754830      -0.01583654       0.30640686       0.21051219
Nb      15.35194142      14.82359852       9.83028712      -0.09735245       0.07120574      -0.23063815
Mo      11.09713549       5.93990877       1.06012467      -0.71271974       0.04802880       0.06046885
Tc       4.90792579      14.01454539      10.80502689       0.01018849      -0.06270736       0.16937236
Ru       7.24118504       1.63605889       9.60229806       0.13885045       0.11211648       0.03993739
Rh       4.84601107      15.29885247       2.64484987      -0.27362263      -0.21497443       0.06558394
Pd       6.07644339       7.31567435      13.97539544      -0.15364479      -0.23650067       0.24949026
Ag      14.69171919       5.66843535       3.59238965      -0.21719235      -0.00659941      -0.23610894
Cd       6.03126151       9.16647830       9.64677877       0.26110187      -0.16874009      -0.05486235
In       8.13811930      10.96372429       0.38284136      -0.06996202      -0.13690212      -0.16892400
Sn       6.13105423       2.18924836       2.97395665      -0.11292340       0.17407712       0.09527408
Sb       7.09222806      10.46983719       5.33883175      -0.02214991       0.07100047      -0.20392431
Te       7.96304282       5.65224101       5.52809848       0.06685282      -0.23068345       0.01404960
I       10.59948753      12.48840954       5.26309864      -0.24906220      -0.04043078      -0.17566474
Xe       0.78532342       0.20943580       2.16412559       0.17790535      -0.17843406      -0.10041860
Cs       4.32940880       2.81500061      14.91386615      -0.60528541       0.25993297      -0.14789969
Ba      11.91152263      13.98870630      13.61198033       0.22340126       0.24740961       0.07565774
La       7.76561303      12.14696259      10.56088522      -0.10788622      -0.08084193       0.36243236
Ce      13.26735762       8.23645480       8.36652114      -0.06582238       0.38617128       0.62373674
Pr       3.89058582       9.98177798       4.79301427       0.01529971       0.05226064       0.11593825
Nd      13.25476856       8.90034416      14.32738049       0.10915768       0.17233162      -0.08658004
Pm      10.21248750       5.00320124       7.71605834      -0.07676579       0.20495403      -0.06663752
Sm      10.45586913       9.26894344       5.99546634      -0.30503941       0.08884347       0.18989608
Eu       4.17628529       7.56266233       0.32280696       0.34818363       0.50977808      -0.34551024
Gd       8.16221343       0.31055096       1.29460044       0.29283318       0.31845072      -0.47839051
Tb      10.94209110      10.93515814      11.53039359       0.41105559       0.10641161      -0.34393805
Dy       1.66861703      10.17234776      14.05747793      -0.10279797       0.13303548       0.12770933
Ho       9.63563643       4.09479574      14.38524500       0.21675114       0.17884962       0.13888565
Er      10.83086666       5.37631660       4.30120245       0.48540989      -0.16686697       0.22848615
Tm       3.19440913       1.81915516       3.68360094       0.01930588      -0.14414039       0.21245958
Yb       6.42085821      14.67351843       7.93278985      -0.15642180       0.19772896       0.18971452
Lu      12.87552776      11.67036826       6.99154090       0.04868814      -0.25841257      -0.02045812
Hf       2.52977397      13.40366314      14.99820320      -0.19577657       0.15227389       0.39372611
Ta      12.94808240       0.83431092       2.34041224       0.55211717      -0.15122777      -0.18850292
W        5.12857895       0.95995770      10.33421092      -0.34592280      -0.05091920      -0.23456883
Re      11.66883925       9.90571258       8.91438593       0.56610918      -0.31044814       0.36043459
Os      10.69553411       0.98509275       2.55724771      -0.67783773       0.10695109      -0.01220125
Ir       9.11062967      13.61427351      12.76422942      -0.01785877      -0.07911961      -0.35524759
Pt       3.06615339      12.61381617      12.69985951       0.07758942      -0.23951541      -0.05681473
Au       7.26629935       5.60016363       0.29779985       0.04832366       0.21782482      -0.37167656
Hg       8.48721949       6.93408077      12.89456097       0.11024439      -0.04412556       0.01703648
Tl       9.17719571       7.34656637       2.56677800      -0.39909345       0.33793560      -0.30636099
Pb       9.61129904       3.55258192       2.19139389       0.48279339       0.16562659      -0.07443494
Bi      13.37035769       7.88374780       1.90124826       0.08762167       0.16921942       0.15696567
Po      14.43250383       2.88911383       3.93885570       0.12987013      -0.26110452       0.27932209
At       5.47814681      14.37928896       0.02166227      -0.17079192       0.20484543      -0.04860520
Rn       2.94952338       3.93031007       9.35464373      -0.14085513      -0.29960829       0.03691764
Fr       2.08182450       6.54041857       6.63904252       0.14293046       0.25277209      -0.24857961
Ra       6.69178869       4.15162394      11.78912281      -0.06698646       0.03324038       0.04639325
Ac      14.72336509       1.51813889       7.07740403       0.00417668       0.15036657       0.29776686
Th       6.37926161       9.08387684       2.62738747       0.16672742      -0.12285197      -0.48141754
Pa       2.19173850      11.92460536       2.56976908      -0.19691280      -0.00591813      -0.16655809
U       13.32062111       5.15290635       6.35373562       0.19890624       0.09192094      -0.12165153
Np       2.72817671      14.17819823      10.44462248       0.05392608       0.26976377       0.02506578
Pu       8.93786701      11.18386807      12.79217283      -0.57334495       0.29622659       0.25629824
Am       0.77932549      13.39046659      11.28594148       0.17913380      -0.35633504      -0.16523659
Cm      13.09800856       8.82175245      12.14922208       0.46634158       0.40280801      -0.93734598
Bk      12.10820354       2.38851678       0.37019072       0.02301332       0.54781282       0.61225235
Cf       3.02890154       0.37627443       8.77949273      -0.02583063      -0.05580951       0.34265843
Es       9.09933431       6.63381783       9.98601335      -0.15774119      -0.07312754      -0.15564704
Fm      10.84913880      13.64428997       2.07713175       0.04508616       0.12860431       0.11578229
Md      10.81369665       1.49427345       8.86111203      -0.06844035      -0.19929147       0.02898150
No      11.60647946       0.23601550       5.29740365       0.05868132      -0.47474101       0.07031555
