102
Lattice="15.589986211753962 5.225520219311978e-29 5.000971072434148e-30 -3.543806457392339e-17 15.589986211761572 1.2827504486746668e-12 -1.3751454002656104e-17 7.102701104480431e-13 15.58998621175107" Properties=species:S:1:pos:R:3:forces:R:3 energy=-495.5000305175781 stress="0.0026492357719689608 0.0036092442460358143 -0.00195447780424729 0.0036092442460358143 0.004256336018443108 -5.598143798124511e-05 -0.00195447780424729 -5.598143798124511e-05 0.003072693943977356" pbc="T T T"
H        6.04334503      15.40363201       0.60245255      -0.34817550      -0.55592531      -0.28003880
He      15.14378265      13.72135336      13.77600368       0.23245086      -0.15737124       0.16385691
Li       6.75077412       3.06294231      10.70254790      -0.01011679      -0.13602707      -0.03694311
Be      12.52596472      10.26920920       4.29752077      -0.06015951       0.44407752      -0.02158880
B        3.15834918       5.06599975       2.19198075       0.01193392       0.01349881       0.09089997
C       11.37069164      10.58625237       0.38388279      -0.08341561      -0.06389591      -0.43322071
N        2.43561165       5.30921311       9.44848848       0.04728446       0.53876406      -0.53921616
O        8.79162493       1.58632824       2.49732206       0.43047035       0.07014772      -0.00234563
F        8.44003843       3.54067854      10.32418089       0.10470023       0.13522843       0.16477266
Ne      10.17004869       6.68950798       9.26260533      -0.11119060      -0.02889674      -0.25307134
Na      12.76010245      12.80906375       7.86705317      -0.04918358       0.05151991       0.18221521
Mg       3.23933116      11.50440364       5.59352838      -0.08447451       0.01035372       0.13660733
Al      13.78484081       1.59014801       4.66903363      -0.05694176      -0.03915216       0.26948366
Si       1.77190323       1.67163762       3.46243004       0.02993555       0.10713983       0.00591993
P       12.90617055      12.08560725       5.38326819       0.06465782      -0.56873167      -0.58573610
S        1.73109072      13.80295721       8.78847889      -0.06575158       0.04554543      -0.10191855
Cl       7.67807491       6.21768838      14.39887812       0.02510503      -0.06214076      -0.04365575
Ar       0.69218103       2.28411502      13.82916185      -0.29979855       0.13244267      -0.16186389
K       13.70831934       8.82427171       0.75514334       0.07458231      -0.15040895      -0.12927756
Ca       0.00575557      11.16772993       6.28695778      -0.01992899       0.13835250       0.19176540
Sc       8.61136485      11.58873078      11.00597162      -0.09881809      -0.19861013      -0.25167480
Ti       0.86185882       1.30757853       5.96986611       0.04301758       0.05181050       0.17440629
V        5.80281570      12.03867383      11.17410529       0.21472439      -0.21921626       0.14183439
Cr       6.46243053      15.28496663      14.53102272      -0.23774111       0.50502646       0.16774154
Mn       4.82336144       0.17157416      12.65536094      -0.50695634      -0.42225522       0.65662903
Fe      11.26819858       1.28614725       7.58937509      -0.02547735       0.06141710      -0.01591056
Co       2.56109106       2.98608033       7.16547856       0.07328883      -0.11404347      -0.02454174
Ni       1.55383690      10.13566536      10.50028715       0.00817908      -0.05246811      -0.03540515
Cu      11.36375458       1.92989529       9.85261906      -0.07200277       0.20403779      -0.05282432
Zn       8.46517736       0.88303105      13.77752095       0.17291036      -0.06887339      -0.06215395
Ga       2.14869914      14.25738045       6.27263763       0.23724911      -0.01992610      -0.02719843
Ge       1.43169431      11.09183768       3.61855420       0.33309591       0.19236559       0.15110028
As      10.05106823       9.84972236      12.03316435       0.00424337       0.08385383       0.26251456
Se      10.59234990       3.56144328      14.61276462      -0.15659115      -0.10749185       0.05170662
Br       3.56728900       7.67725243      12.25622613       0.50271213      -0.18413469      -0.04195597
Kr      15.13881160      15.48643443      11.75677453       0.02796096       0.03412411      -0.24464193
Rb       4.10703092       4.84118948      13.04663491      -0.01918897       0.03732020      -0.10300338
Sr      14.92546795       6.97221751       6.97362036       0.58334744      -0.15457544       0.16974717
Y        1.70326048       7.21164701      10.26563797      -0.11019364      -0.43377846      -0.09719068
Zr       3.42094599      10.43759157       2.02544878      -0.23232566       0.27620640      -0.37281406
Nb      13.80225973       0.21756012       7.06961438      -0.00213587      -0.16542155      -0.60875577
Mo       3.09304088       7.10261686       1.75362151      -0.31145531       0.24005324      -0.01916796
Tc       0.02745615       2.00140109       8.35601758      -0.30317891       0.17174190      -0.07341529
Ru       2.12430590       0.49510363       7.94016491      -0.21809727       0.10775396      -0.06843415
Rh       1.99309747       0.80221758       1.13548853      -0.16292107      -0.12381701       0.21841535
Pd       4.77037053       3.44968994       0.46405499      -0.11800753       0.00927000       0.10353521
Ag      15.07365323       1.92208433       2.49212849       0.21683584       0.12700473       0.02101628
Cd      15.35149868       4.61730858       9.45252939       0.31053281       0.09040585      -0.13068703
In      11.61834244       3.16479893       5.56717454      -0.26157755      -0.03339151       0.17689690
Sn      12.43639400      15.29803325       9.52075568       0.31032261      -0.20101482      -0.28926742
Sb      10.75128007      13.03826790      10.06815428       0.03892669       0.09212721      -0.08789268
Te       4.33584620      12.19809205      15.23555570       0.04135810       0.00224090      -0.15503134
I        8.82156945       5.72041569       6.21949476      -0.07135150      -0.01054519       0.04188958
Xe       6.16335087       7.46175794       9.26732872       0.08201412      -0.05170964      -0.02991100
Cs      10.85692602      13.00962308      14.07920294      -0.30514878       0.12711211      -0.03842521
Ba       9.48030445       8.99493310      14.94794003      -0.07990846      -0.20596170       0.03819242
La       7.02720243       1.58298765       1.30951872       0.14247775       0.90705788      -0.08551857
Ce       6.29402524       8.12890651       4.45389938      -0.04763010      -0.11441630      -0.10238970
Pr       6.89007328      13.60793943      13.70519254       0.11713986      -0.56741428      -0.07962573
Nd       3.22779562      11.66218589       9.48151862       0.04983924      -0.01987165       0.04243478
Pm      14.41593398      11.93990954       3.00665487      -0.01825005      -0.10630962      -0.07186063
Sm       9.96256596      11.08469634       5.28333283       0.17161971       0.37914598       0.09335685
Eu       9.47108686       3.06482530       8.25536897       0.27343374       0.18247530       0.18320507
Gd      10.99963970       1.65574074      12.49209729      -0.46514881       0.07600051       0.53943157
Tb       6.45795893      12.15146922       4.85254624       0.02692497      -0.04321856       0.01110117
Dy      11.11253181       7.82609974       4.76516587      -0.51110953      -0.32280740      -0.18387473
Ho       8.90815391       4.28298260      12.55342263      -0.27962643      -0.05822819       0.15279955
Er       6.05360881       5.79300438       1.23645867      -0.22659259      -0.13807091      -0.04844030
Tm       3.37603630      10.28794072      12.98240830      -0.20926324       0.06622598       0.08551662
Yb       0.45485788       4.62388992       3.85294219       0.11844955       0.39225954       0.08217362
Lu       3.46488604      15.24543257      10.17208216       0.03386312      -0.16594037      -0.15263295
Hf       2.41051433       5.55701363       7.44648349      -0.16802695       0.11279386       1.02708054
Ta       4.20565487      13.05017287      12.13824320      -0.21162713       0.08174346       0.21085072
W        3.65519398       3.12432922       2.89908222       0.33766133      -0.01767647      -0.31923866
Re       4.83154079       9.87237570       4.02385997       0.07734001       0.06013739       0.30398363
Os      11.65360160       0.25137447       5.34958276       0.02760573       0.00821643       0.18861085
Ir       9.13081569      13.84222969       5.06442260      -0.16850010      -0.20011622       0.28043854
Pt       0.36794095       4.17193904       6.69354468      -0.00856826      -0.09218475      -0.02546271
Au      11.73461984      11.32119124       2.17658519      -0.00460678      -0.04189493       0.31152129
Hg      12.53586148      10.02893774      13.62709800      -0.18379819       0.18356162       0.16187425
Tl       6.18341482       2.48017758      13.70092381      -0.07453822      -0.15320486      -0.07538675
Pb       1.89398590       9.11331435       7.93904093       0.07979533      -0.05749092      -0.25058869
Bi      14.31015375       8.63579180       4.07662553      -0.17481163      -0.06235492       0.19087784
Po       1.67129918       9.14578431      15.55715643      -0.01606578      -0.34440494      -0.03817579
At       6.62096175      12.36862769       8.46679821       0.25788206       0.07896926      -0.29672736
Rn      13.25218334       0.46007412      14.85758355      -0.05635715       0.24819809      -0.26347890
Fr      13.11106664       9.80445375       9.91859641      -0.13458233      -0.15299045      -0.06867480
Ra      11.42282518       2.33177680       2.06652767      -0.14260978       0.13158998      -0.15205672
Ac       8.77684643       1.25284133       4.74214293       0.07874641      -0.37968034      -0.03930128
Th       9.66436158      14.87510459       7.64316469       0.09849311      -0.02036062       0.07413915
Pa      11.45496227      13.94074030       3.93345682      -0.03964689       0.09097868      -0.00448351
U        3.97117298       0.89699223       0.11548166       0.15320939       0.19255823       0.10627717
Np       3.61132365      15.01285240      13.91319145       0.02707270       0.41504371      -0.67521358
Pu      12.83485747       4.50990262      13.14481739       0.43855914      -0.08093244       0.18827036
Am      13.60488178       2.33676296       7.85847669       0.30747855       0.29896781       0.21092485
Cm       1.66712314       3.64542404       0.73818560       0.01909310      -0.07648498      -0.07252657
Bk       3.35270398       3.32475009       5.15487278       0.34788448       0.09839745       0.23347196
Cf       2.76181844       3.19725874       9.72848687      -0.11855639      -0.30938727      -0.12860802
Es       4.46472331       6.86445050       3.45314521       0.51359391       0.19801635       0.51154572
Fm       4.74075748       1.25079086       7.46564430      -0.11173671      -0.15162787      -0.12382650
Md      15.58628724       9.37148334      12.81657088      -0.08322227       0.12309918       0.16990337
No       2.05132515       8.46004681       4.80368052       0.01708665      -0.21952501      -0.26366538
