102
Lattice="15.657352145147533 1.1079415904009585e-13 -1.0691117262369246e-17 1.192385478704163e-13 15.657352145165843 -1.1125717551532782e-15 -1.6898099931464268e-17 -2.159652222314345e-16 15.657352145154332" Properties=species:S:1:pos:R:3:forces:R:3 energy=-484.5629577636719 stress="0.001969330245628953 7.242655556183308e-05 -0.0002871441683964804 7.242655556183308e-05 0.006956597790122032 0.0006697667413391173 -0.0002871441683964804 0.0006697667413391173 0.003199248807504773" pbc="T T T"
H       11.90296248       6.83401698       5.89242125       0.05896172      -0.00924337      -0.13736583
He       9.55794642      11.32847626      13.52085787       0.07115978       0.04659254      -0.28883734
Li       0.51046484       7.97363806       1.26969385       0.30534899       0.28681210       0.12855501
Be       6.21423870       2.70317954       5.04758127       0.20520616      -0.05209786       0.02019026
B       15.63710028       1.35191144      10.60184384      -0.99624383       0.74946272      -0.22577873
C        6.91794504       5.27584141       8.93151108      -0.24292442      -0.02925909      -0.24890478
N        1.49078239       8.87255410      15.42530525      -0.08404416       0.11155178       0.13938832
O       10.09176892       8.33593465       4.67889906       0.09507886      -0.14902571      -0.29950798
F        2.29872431       9.79515510       4.31527247      -0.09870782       0.16050410      -0.08262420
Ne       2.92433345      12.92390684      10.85290274       0.01880740      -0.02445725       0.09105550
Na       7.75237857       5.58880081       3.25959431      -0.03635236       0.05332813       0.05116607
Mg      15.28045909       4.16780755       5.44268181      -0.26376912       0.36394283       0.03686447
Al      14.99128495      10.64114943       9.78228926      -0.12328154      -0.03647868       0.73415220
Si       0.39266048      10.30373471       7.69914281      -0.06356847       0.22944036      -0.64317882
P        9.01882646       0.07192419      13.11757408       0.25427103       0.01411703       0.61574173
S        0.79997891      13.53777886      14.18099077      -0.04872417      -0.30632693      -0.27519482
Cl       5.79298655      13.40592812      13.08329056       0.04680849       0.03907299       0.07024760
Ar      12.84852280      13.64087774      15.11024456       0.11546576      -0.17356211      -0.13375826
K       14.89152059       4.98913298      10.56018138      -0.12021313      -0.06687895      -0.13565999
Ca       4.68816110       5.21876834       8.09961315       0.14237848       0.11608625       0.07008407
Sc       1.05176717      15.18825434       6.29539328       0.46725750       0.36769274      -0.18113002
Ti       8.06980467       4.21530538      10.20629561       0.27109018      -0.33679736       0.25688845
V       13.48220409       7.05719053      12.87892408       0.15613657       0.31270623      -0.18604885
Cr      11.23081812       7.17949208      15.46334716      -0.09186098      -0.33853102      -0.27054703
Mn       2.57749067      13.69442703       5.16377529      -0.35413006       0.06592137      -0.20377296
Fe       6.68388468      15.58085132       0.69372364       0.08107138      -0.08415282      -0.13283949
Co      10.40040234       6.19198400       1.85596965       0.22625503       0.43214411       0.18214297
Ni       7.27957906      12.19362439       9.94555406       0.21566489      -0.08982548       0.09568501
Cu       3.36300064       5.87739880       0.13521021      -0.04614899      -0.04336911       0.32653445
Zn       3.55438392      13.52126407       7.34421403       0.11221123       0.02333730       0.05961620
Ga       8.57702565       8.55026078       9.33795227       0.60981429       0.81999058      -0.55404705
Ge      11.12668117       6.57770105      13.11010901      -0.17110738      -0.21035862       0.04086546
As      13.39089141      14.31645907      10.21997563      -0.15147534      -0.21382344       0.15432222
Se       3.47169777       9.75389161      12.05937143       0.00256335       0.17842358      -0.29835942
Br      10.33408595       9.42391832      15.37306698      -0.03848278       0.01002580      -0.16905992
Kr      10.53846764       1.59295685       7.11388644      -0.11276416       0.15863033      -0.00858867
Rb       7.00100952      10.48230210       6.54598503      -0.17805350       0.04023206      -0.02658658
Sr      10.51787687       9.75327395       2.62829440      -0.23973551       0.22700813       0.31278858
Y        7.84458798       5.17345534       6.79816177      -0.13389528      -0.01277375       0.09743883
Zr      13.31375936      10.08737085       7.61376186       0.51817465       0.19849312      -0.10344982
Nb       1.22139353       0.23927923      14.68069488       0.11175778       0.49711043      -0.86672032
Mo       9.75652144       5.77194994      15.14937450       0.60803807       0.04108092       0.26682204
Tc       7.73881467       6.44532024      10.14966630      -0.67062604      -0.59998369      -0.00699651
Ru      11.03979869       9.22333642       8.58411739      -0.21334966       0.00101680       0.11381459
Rh      15.63916533       8.05579716      14.26581155      -0.09113500      -0.56227571      -0.11466676
Pd      12.94794270      12.00044171       9.36525206       0.16431710      -0.09903587      -0.13896090
Ag       3.60386021      14.27075696       2.82152938      -0.05468628       0.08228786      -0.07544626
Cd       4.84732395      15.05925753       5.55674343       0.25784671       0.37173444      -0.13177170
In      15.52645340       9.73979054      12.23220817      -0.16724552      -0.00009451       0.16995591
Sn      13.51094789       8.32290773      10.14594680      -0.23645020      -0.18996550      -0.00107379
Sb       0.47195494      13.97040579       3.66135194       0.03919351      -0.11722301       0.12187180
Te       1.13100698       5.23498201       7.77512779      -0.02358371       0.07002914       0.09305012
I       13.54882788       4.07018742       2.25830241      -0.17653459      -0.17396279       0.41546452
Xe      12.32118233       1.31231276      14.58664635      -0.16533208       0.00577617      -0.10823396
Cs       3.08686755       2.73189091       5.92887990      -0.12564589      -0.30827969      -0.00186934
Ba       1.96318022       8.17812276       9.67355789      -0.05374199       0.10621267       0.07699995
La      13.87061642       6.96502794       7.10182087      -0.11530098      -0.00828290      -0.10838101
Ce       8.51013259      14.93596033       0.46577346      -0.15507108       0.39399472       0.54289418
Pr      15.41307322       1.38121378       3.46011808      -0.07536292       0.18257143       0.26077056
Nd       5.52867877      11.42923466      11.29960866       0.09425448       0.04528667      -0.18504518
Pm       2.01463338       3.60254326      15.36834471      -0.15323576       0.24769574       0.10356446
Sm       4.80798701      13.62381178       0.00703827      -0.74964398       0.07023263      -0.50243151
Eu      10.95554200      15.06557973      11.24931802       0.03888965       0.03268956      -0.02984458
Gd       9.32555293       2.79396502      13.75892828      -0.01428148       0.34288350       0.09775372
Tb       3.56175534      11.64208392       4.47490791       0.26200539      -0.51030785       0.01931267
Dy       4.15877546       4.76395832       2.96319734       0.07396075      -0.00222703      -0.20982376
Ho       0.19735565       9.91721968       4.81842769       0.41597086       0.15930302       0.39675018
Er       0.09957981      14.84090116      11.74185517       0.13891612      -0.43416610       0.25165108
Tm       0.56176521      10.80545664      15.52227857      -0.00334807      -0.13614707       0.04900537
Yb      10.83686110       6.42016273      10.12438479       0.12993468      -0.01248421      -0.22203460
Lu      10.37039355       3.78275366       1.48564304       0.17966054      -0.07868886      -0.05279866
Hf       7.93898609       1.24429053      11.21343990       0.16320564       0.85898149      -0.64541888
Ta      13.52005832       1.22304940      10.34878516       1.22030544      -0.28859365       0.05905405
W        1.36652747      12.44045693       6.71553708      -0.45184752      -0.42062175      -0.32565051
Re       5.75055474       4.85678993       5.38000840      -0.12492322       0.22815779      -0.20453195
Os      15.11783443       1.62427341       5.66977728      -0.08001640      -0.14404754      -0.24713939
Ir       9.40262332      13.53707998       2.17509541       0.11510345      -0.13206172       0.02583829
Pt       9.26337121      12.27344810       4.49049772       0.00173874      -0.05132526       0.11682275
Au      15.41857913       2.00434652       0.51337765       0.06558388      -0.07738595       0.17687607
Hg       5.65330649      13.52963746       8.60291424       0.25937802       0.02516321       0.32074988
Tl       5.13913988       7.44590545       5.25066946       0.11726018      -0.11903107       0.00194367
Pb       8.34624485       5.72074761      12.69637180      -0.23587361      -0.09247417       0.11044274
Bi      14.00247112       9.69804835       2.40364645      -0.05536939      -0.05737363      -0.29974699
Po       3.81185753       1.01935894       0.08783480       0.29813612      -0.06989877       0.45062050
At       2.24521169       4.23101480      12.12643243      -0.05097356      -0.08388504       0.05506781
Rn      12.25575013       0.36446160       2.56974577       0.04073380      -0.10548434      -0.02714859
Fr      12.77011304      12.74272345       4.57783545       0.01221262      -0.09892737       0.00052509
Ra       9.94422451      12.51231973       8.16765352      -0.02383855       0.15558541      -0.05213505
Ac       6.72122022      13.40067444       3.08394594      -0.08039057      -0.19150156       0.44362772
Th      15.16461766       2.41815975      12.99402036       0.07024249      -0.06162751      -0.27698112
Pa      10.51988741       8.59316120       6.56035992       0.06708923      -0.05516866       0.30475795
U       15.07439319      13.22641486       7.99076421      -0.68781573       1.97433043       0.54401141
Np      14.75924406       5.96069685      14.00685344       0.17399323       0.62210560      -0.06431845
Pu       7.80990699      14.60758459      11.01663195      -0.46225080      -1.03777289      -0.44809413
Am      15.54550221       2.18166738       8.24838010      -0.51772797      -1.49140179      -0.03175122
Cm      11.37353246       6.35732988       3.78006363       0.09608506      -0.16078514      -0.05236828
Bk      14.61356960       0.14261575       8.27293885       1.05693424      -0.55490434       0.17169425
Cf       1.22890230      14.88375721       0.94849292       0.18576017      -0.53341210       0.81381321
Es       3.13047302       8.22777079      14.35603238      -0.17523226       0.14364460       0.23246014
Fm      12.86018007       4.91618409      14.95043964      -0.35732654      -0.15853497      -0.03346248
Md       9.55420220      15.09000741       4.62284236      -0.22520687      -0.06674287      -0.27552018
No       6.20456309       0.78761756      13.68655766      -0.06338297      -0.20034200       0.05389278
