102
Lattice="15.625757948197204 2.138961576869494e-13 -2.577653843800584e-18 3.9791249827147767e-13 15.625757948216249 -2.1932510681229488e-16 2.3197251921051618e-17 7.760647404369653e-17 15.625757948198261" Properties=species:S:1:pos:R:3:forces:R:3 energy=-490.192626953125 stress="0.003922122064977884 0.00021213544096099213 7.721301153651439e-05 0.00021213544096099213 0.0005290409899316728 0.002064773114398122 7.721301153651439e-05 0.002064773114398122 0.007278872188180685" pbc="T T T"
H       14.30746704      13.90851452      12.62944509      -0.00501896       0.12887818       0.00571527
He       9.00033663       1.11794789       2.39008502       0.08889555       0.02031739       0.03315531
Li       5.66528718       6.73449884      11.63347769      -0.02698336      -0.18161595       0.00072509
Be       7.63240140      13.36022471      10.68790509      -0.27329600      -0.23194197       0.13929898
B       12.61210567      10.80648307      11.90376184      -0.00718163       0.01087213       0.21138449
C        5.45296718       8.33964569      13.03185562      -0.31161287      -0.01305903       0.12691315
N        0.27054851       0.77532529       3.83125044       0.33308369      -0.27718797      -0.31883177
O        1.80377905       0.62496696      11.53095934       0.10144761       0.33202344      -0.14686522
F        0.73573938       3.32672985      10.51252628       0.08902009       0.26449808      -0.00352466
Ne      14.11219029       2.42670555       9.68469986       0.01564434       0.00790204      -0.11849745
Na       6.84628671       3.36979360      12.04690426      -0.04585500      -0.02504357      -0.03981101
Mg       8.67015336      13.92518474      13.14788841      -0.03801289      -0.13622668       0.06072634
Al       1.69861321       7.20301701       7.14760181       0.16277197      -0.04395106      -0.10678181
Si       0.31597569      14.20522987       0.76585637       0.15268129      -0.19095111      -0.17216019
P        7.90614671       6.21430195      12.27422134      -0.41436884      -0.19165927       0.06882036
S        9.11658268       9.71303076      14.18960499       0.04302510       0.21514603       0.11966766
Cl      14.06117273      14.31691586       9.15898177       0.16816531       0.13878202      -0.14805731
Ar      13.53578275       2.90370613      14.15858732       0.13781373      -0.05149312      -0.05135123
K        3.49940030       1.00543943       0.67506230       0.08732197       0.23937730      -0.05955431
Ca       0.02097556       1.75644883       1.83800268       0.02553541       0.18403028      -0.07462430
Sc       1.23005953      14.70335212       3.35925262       0.43491724       0.06556100       0.19651470
Ti       3.55639626       4.89491435       5.15486422      -0.16642377      -0.27242178      -0.29895726
V       14.77916976      12.58072057       7.52337726       0.10313755       0.16645122      -0.17491794
Cr       8.67369437      15.20204356      10.79413653       0.30085963       0.51958126       0.13018762
Mn       3.83822669       0.05914066       9.26653394       0.37433460       0.49406421      -0.42102396
Fe       8.40101023      13.17069028       0.68365895       0.04385707      -0.11021417      -0.36428624
Co      12.79679303      12.90772506       0.61888403      -0.41656947       0.42395008      -0.35308433
Ni       2.65492144       6.97278750       4.91023644      -0.20668255       0.20422083       0.18789411
Cu      10.77774313       2.85863663      10.15102077       0.91554070       0.45338002       0.10170470
Zn       8.86081074       9.15191528       2.56071698       0.01843297      -0.11842187      -0.05494240
Ga       2.61373360      13.29038711       1.13606366      -0.02901384       0.01901574      -0.13198853
Ge       8.90264433       1.71805268       9.94252364      -0.90319335      -0.49177763      -0.25722367
As      11.40369540       4.24138710      11.91456883      -0.17196169       0.06254465       0.25868380
Se      12.03970625       8.87306893      12.25268588      -0.11041982       0.10428995       0.00012070
Br       6.56246450       0.36183495       0.33233812      -0.20272544       0.11285102       0.01242729
Kr       7.67256975       9.59309903       7.07046948      -0.03818768       0.04031242      -0.03932610
Rb      14.79131158       0.55806531      11.67012875      -0.00633634       0.12181893       0.27821660
Sr       2.00541059       7.65962757      15.56522922       0.22671545       0.15613724      -0.24506748
Y        5.51991562      13.55109679       1.08449210       0.19419509      -0.29631811       0.16845390
Zr       7.30123630      13.29920087       4.33382875       0.14185703       0.20177315      -0.52910304
Nb      10.70003281      13.79048524      15.18414099       0.14039363      -0.05218774       0.34610146
Mo       7.38222293       8.34480963      13.19008914       0.01439962       0.12507711      -0.37159428
Tc      14.16025097      15.46802873       3.85266584      -0.31889933       0.21592082       0.35632175
Ru      14.96486556      10.81378913       8.35163271       0.16021943      -0.21266517       0.09029980
Rh       1.01531608       8.42835193      12.17174794       0.80339473      -0.15125571       0.10891336
Pd       0.65152475      12.32840555       2.71155435      -0.03669953       0.15406342      -0.33258423
Ag      10.37477400      13.32918624      10.95321818      -0.06269948       0.03792791      -0.07165172
Cd       5.05794706      15.27436588       3.96290517       0.05079180       0.02461173      -0.11089522
In       6.27107009       0.28979512      10.36695893      -0.40254536      -0.29156709       0.02243709
Sn      14.62374472      12.99711876       4.85616216       0.19141588      -0.17367360       0.12350222
Sb       4.36428735       4.23831991       2.20886936       0.03704104       0.17565526      -0.11895537
Te      12.92507687      11.25365436       2.49456070       0.04835965      -0.17967731       0.11737814
I        5.28130555      12.22214956      10.27702067      -0.05090445       0.23708135      -0.18104813
Xe       3.31217575       9.44485863       4.31928342       0.17625177      -0.13426870       0.00915945
Cs      12.02556538      15.45401783       6.82048572      -0.29278758       0.12735051       0.08673767
Ba      13.28974366       5.09781964       5.59505015       0.04660113      -0.01560596       0.04363036
La       9.33782652      10.47281840      11.40294391       0.21412483      -0.16733754       0.09404807
Ce      10.09040704      11.22879325       0.88364346       0.13156605       0.20489421      -0.15162143
Pr       3.25206578       8.61223301      12.28158766      -0.71007431       0.05319141       0.06393418
Nd      14.55967629      12.50331022      14.20085220      -0.18778688      -0.11227036      -0.23435280
Pm       3.31983219       9.56668856       8.81639356       0.28864473       0.03107193      -0.12895572
Sm       3.15677858      14.69966334      10.72578013      -0.20884253      -0.29551852       0.47400844
Eu       5.67971383       6.63545741      14.97095543      -0.02521312      -0.20877603       0.09221685
Gd       1.47464848       6.36380569      10.14096176       0.11591473      -0.40862221       0.24539085
Tb      13.10667533       5.32270356       1.61656775      -0.11573133       0.44228911      -0.13666245
Dy      14.11508454       7.66764215      14.20605350      -0.14673269      -0.28421947      -0.21454865
Ho       2.52444668       2.20937429      10.57021190      -0.20795687      -0.01771164       0.01294514
Er      10.13736590       1.48481101      12.64376709       0.04761259      -0.27697480      -0.01307215
Tm      11.88461344       8.70466766       1.17073562       0.02856162      -0.08248934      -0.01551498
Yb       5.37269131      13.93506410       7.10847340      -0.02266110       0.02477051       0.19248798
Lu      12.92306435      12.12164468       9.86334638       0.04457168      -0.39520407       0.13550615
Hf       5.92670971       9.62901982      11.33319233       0.12556696      -0.20882171       0.07362723
Ta       7.36172897      11.39353279       2.29588511       0.08900034       0.12845132      -0.16251844
W        0.75407202       8.79637664       9.05893984      -0.09938571       0.08088195      -0.41151023
Re       4.04871737       6.85774075       2.51743879      -0.42092812      -0.19447398       0.02087453
Os       2.58184181       3.25897420       3.91905950       0.05345058       0.41439986      -0.04794209
Ir      11.63786507       6.38576998      15.44116170      -0.36372939       0.01495153      -0.18321416
Pt      14.82176329       3.84669648       3.41054751       0.02063340       0.14813469       0.29744202
Au      11.82227575       3.56900302       7.89923109      -0.04041069      -0.11006957       0.08026725
Hg       1.10180709      10.85127453       0.23501504       0.04207295       0.08046074      -0.07121725
Tl       8.47331197      14.35983172       8.29170537       0.27632535       0.09254466      -0.21538560
Pb       9.09201863       6.89079230       0.59628534      -0.18936330      -0.08413374       0.20309037
Bi       1.72206534      14.41308466      14.04739154       0.09473822      -0.21993825       0.22585031
Po      14.93458230       7.95528558       1.60794458       0.09918240      -0.25517374       0.48403531
At      11.76520702       7.70446764       4.17558105      -0.17698893       0.12508109      -0.07633593
Rn      11.29598474       8.39294061       8.07503723      -0.25200060       0.10573775       0.16797864
Fr       8.02932378       3.34851070       0.56732880       0.22654107       0.06199855      -0.02841952
Ra      15.19475460       9.47576921       5.09831700      -0.04398698      -0.15325290       0.39270666
Ac       9.08245875       5.07084843       9.79872453       0.21836451       0.19567099       0.09353873
Th       1.28836576       5.67345754       3.12789368       0.27238947      -0.54022396       0.11510654
Pa      13.42555559      14.44175988       2.07349452      -0.27610618      -0.31971365      -0.21226043
U        5.78674496       7.91927690       1.68610702      -0.05326569      -0.26925462      -0.28922248
Np      11.35772334      11.29100396      14.02725803       0.22320077       0.19156656      -0.24262998
Pu       8.51227012      14.03462133       2.47057489      -0.21320556      -0.28425232      -0.11587077
Am      13.03861011       5.18835343       9.98175116       0.21476837      -0.19435497       0.09328872
Cm      12.47897804      12.93339763      13.08122048       0.01144856      -0.36278832       0.61378241
Bk       6.97635801       9.24392655       0.40473459       0.01246929       0.40966392       0.05801082
Cf       0.62366889       2.09804902       5.31001995      -0.30717006       0.15435475       0.41074926
Es      14.34940626       8.99915705      10.54126931      -0.33447921       0.19651914      -0.11958043
Fm      10.40056823       6.71115186      13.10450870       0.17698862       0.02399236       0.11410476
Md       3.91686407       1.67520901       6.18051736       0.22335023       0.03726692       0.18221109
No       3.94471506      12.41742057       3.82169744      -0.14521104       0.28539944       0.02524963
