102
Lattice="15.887377410393416 3.086879010418255e-20 7.598003559362655e-26 -7.633668998293211e-18 15.887377410407591 1.949723881759961e-12 2.5371683308847358e-17 2.1058502139073643e-12 15.887377410394159" Properties=species:S:1:pos:R:3:forces:R:3 energy=-487.6519775390625 stress="0.0019812146201729774 -0.0011101391282863915 -0.001301221433095634 -0.0011101391282863915 0.0017064566491171718 0.001451660820748657 -0.001301221433095634 0.001451660820748657 0.0015283862594515085" pbc="T T T"
H       15.09185964      13.41381807      14.82418243       0.13725078       0.08942078      -0.00788960
He      14.22475945      15.75687510       2.18186957      -0.63455814      -0.09112822      -0.52722305
Li       0.03204104       5.73156364      11.35125025      -0.03245863      -0.02417552      -0.00867599
Be      10.17883517       7.66327022       1.71562876      -0.30539003      -0.49583966      -0.02850016
B       12.49122477      13.49069334      10.72288133      -0.00364980      -0.40203261       0.61629254
C        7.08318584      12.17594447       1.65231717       0.46475536       0.30014235      -0.12980664
N       11.03196388      11.33708141       0.99554887       0.19190836       0.21483177      -0.17403340
O        6.23034697      10.02753742      13.64900444      -0.11229402      -0.10826296       0.32122660
F        9.18197388       8.00101453       8.71892459      -0.12469371      -0.40036875      -0.41945890
Ne       6.04296034      10.62767055      10.10952473       0.02125262       0.02485615       0.07007778
Na      11.95172319      10.41955102       2.86589082       0.07157613      -0.17378297      -0.08167036
Mg       0.88942157      13.75307403      10.82823148       0.27312133      -0.10803142      -0.38710845
Al       7.36884658      13.69760884       7.25415502      -0.09648086       0.11168805      -0.10529299
Si       2.45416706       5.20547000       4.61795406       0.36029831       0.14186147      -0.19977212
P       12.75139183       6.35112434      15.72305730      -0.02630892      -0.13711348       0.39565304
S       15.24631775       7.11193039       2.57873804      -0.15898775      -0.26377642       0.13421419
Cl      15.76479763      12.25995518       9.11804729      -0.20275216      -0.14581135       0.06659313
Ar      14.78149616      11.17411038       5.56428277      -0.02195736      -0.08469727      -0.03121006
K        5.79889845       4.61774238      10.90225346      -0.12764145       0.05340243      -0.01800300
Ca      15.66584374       5.88492718       0.19379341       0.07711714       0.06807196      -0.06095505
Sc       6.58145905       6.49459632       2.92575093       0.07446960       0.04993892       0.01248911
Ti      13.87524525       7.29135960      13.75359151       0.06266505      -0.09118459      -0.12493942
V       15.72639290       7.68056447      13.42241547      -0.24671391       0.06915992      -0.09719881
Cr       5.23223747       6.48839797       0.38249052       0.03665370       0.00205624      -0.36202079
Mn       2.29636298       0.40459527       4.77910953       0.79450506       0.80224431       0.58289719
Fe       4.21809703      10.89983629       2.29701981      -0.14673774      -0.08196668      -0.17981708
Co       3.39208422      14.63736634      11.58607713      -0.26052427       0.12531346       0.24763927
Ni      13.70604270       0.36000032       5.97608666      -0.04492055      -0.06863445       0.13610303
Cu       1.41668840       6.37515179       9.33699461      -0.06862333       0.13107818       0.16349098
Zn       5.15118306      11.56424698       4.53572665      -0.05611425       0.33086345       0.40697861
Ga       7.12709058       6.15774437      14.53906686      -0.23417719       0.23460412       0.13751598
Ge       5.73725131       8.75286032       1.37461293      -0.03278923      -0.04169643       0.12831761
As      10.47756606       2.86051078       6.63209625       0.00195743      -0.65847737       0.13589904
Se      11.81098034      13.09776947      12.65991508       0.21027716      -0.02429473      -0.39956981
Br       8.74715455       4.38574560      11.05822284       0.05291446       0.04910503      -0.19198930
Kr      10.41542994       0.53609496      15.53918692       0.04460243       0.04902662       0.12193824
Rb       9.96213235      10.32081417       7.52832460      -0.01589648      -0.12069220      -0.02147108
Sr      12.74873472      12.07170088      15.38107299      -0.18653095       0.06976540       0.09711194
Y        5.97092692      11.24071767      15.33614302       0.16829795      -0.30747363      -0.43690687
Zr       8.53205760       5.21502094       0.91560867       0.51040596      -0.07584301       0.30892828
Nb       0.76798452      13.80928225      13.74232439      -0.11805895      -0.28334892       0.23796406
Mo       5.15114095      13.69433295       5.97113545       0.17869776       0.16483164       0.12867141
Tc       3.18065833      12.01495282       0.28215943      -0.44805884      -0.00616330      -0.50373298
Ru       6.43322100      10.77059616       2.51266277       0.57797474      -0.22096959       0.40696013
Rh       3.71486780       9.28581628       0.21753594      -0.19222361      -0.25802833      -0.22970939
Pd      10.45557146       5.02494038       5.68638884       0.20158920       0.06138797       0.22919908
Ag       9.43205971       6.20954882       3.54305515       0.04436050       0.33950043      -0.39543021
Cd       7.16077075       3.62525087       2.84634490       0.10978035      -0.09471198       0.18329024
In      14.09494579       7.92413223      10.91288804       0.08214036      -0.05764434      -0.08804220
Sn      11.83785738       6.29635170      12.15600373      -0.12393178      -0.12403864      -0.08871209
Sb      12.47403311       1.51787508      10.16492833      -0.00527265       0.01234585      -0.01906347
Te      14.38326019      10.07415381      13.56282877      -0.09584912      -0.08230275       0.13376889
I        3.48816083       3.09607443      12.66064200      -0.09628639      -0.06656907       0.09520465
Xe       5.38625987       0.03020092       4.15905777       0.05410829       0.21564388       0.18379822
Cs       1.56970992       9.67137931      10.54301705       0.20050490       0.05305035      -0.19466183
Ba      11.30665728       4.84278969       9.08475817      -0.22207595      -0.06276578       0.06283492
La       1.50086085      10.20399066      14.61460555      -0.45986888       0.34610397       0.04704402
Ce       3.49943912      15.69890325      13.39432458      -0.34069294       0.02954126      -0.01802939
Pr      15.66205647       5.39500068       4.56335276      -0.15028661       0.18475132      -0.02159823
Nd      14.98431404       6.84830890       8.04936110       0.08523574      -0.02884389      -0.27937335
Pm      12.51388492       6.10684005       2.50480163      -0.12084933       0.24742192      -0.14288905
Sm      10.46798357       2.36426908      12.03544584       0.25645447       0.10323131      -0.04228389
Eu       9.28928618      10.48037197       1.17473105       0.38042331       0.36108884      -0.07019658
Gd       4.52379774      14.76911858       8.13539830      -0.26581863       0.10044298      -0.24105603
Tb      10.06651726       3.33303295       3.66476918      -0.08838443       0.09589028      -0.20199220
Dy       7.87354225      13.11289833       3.89255755      -0.12241806      -0.27944449       0.05327594
Ho      10.42514891       7.33025093      14.79695778      -0.01487485      -0.14693934      -0.14648348
Er       4.75725395       8.53262941      13.70167773       0.96345913      -0.04445010      -0.36443818
Tm       4.17150214       6.90695462       6.20862770       0.02372509       0.03026907      -0.17815247
Yb       7.94488415       6.24842316       6.52856476       0.18178721       0.37995863       0.54508197
Lu       2.55135825       0.98085582      10.43858767       0.33961499       0.23688823      -0.07187642
Hf       0.12521895       0.15204023       5.09243312      -0.21873730       0.00572315       0.04592699
Ta       7.99431423       7.74452077       0.63387547      -0.53975415       0.09985667       0.10001849
W        5.31857840       4.37019860       7.25553523       0.09306312       0.39935702      -0.08185501
Re       3.57036769       5.32525223       8.58128026       0.58512968       0.28681967       0.32952365
Os      15.34636575       4.59279765       6.99300976      -0.06963372       0.17959666      -0.05987748
Ir       0.94585901       0.00833423      12.19555016       0.00245038       0.00251761       0.24772298
Pt       1.95648278       7.40619345      14.70816757       0.31476283      -0.33285218       0.13525653
Au       9.57500014      10.70759407       4.25515631      -0.16114451       0.00981170      -0.10773307
Hg       4.56393070       2.13361816       8.42301823      -0.15038139      -0.36929864       0.20270227
Tl      12.86046369       6.19997959       5.66735802       0.14590774      -0.00476733       0.14850426
Pb       4.93749847       4.00821907       4.52173781      -0.25636905       0.11468069       0.16545427
Bi       3.50277010      12.46172447      13.21040180      -0.13952838      -0.29612675       0.06103098
Po       1.90101275      14.13269828       6.34223065       0.27827144      -0.47366560       0.42872199
At       1.92015201       3.51097715       0.86229803       0.03729967      -0.09547760      -0.11008116
Rn       0.03772637       1.28466772       8.54335584      -0.01875001       0.03549279      -0.25442350
Fr       8.51654144       8.50701964      11.45977109      -0.10305843      -0.06723827       0.07378924
Ra       2.49809567       8.08106380       2.67820680      -0.45706105      -0.20202912       0.27870220
Ac       7.44427457       2.31715560       6.40019840       0.12735339       0.06720396      -0.09383018
Th       4.62160688      13.26316558       2.04158152       0.24482226       0.42165744       0.32218269
Pa       1.93448147       4.29755670       7.30382364      -0.42603287      -0.42962140      -0.28671092
U        3.89096987       5.67620073      15.18035149       0.21780935       0.26122451       0.32755762
Np      12.33277252      14.57537438       8.63411552       0.81782198      -0.83059752      -0.06896145
Pu      13.71388669      11.49068054      10.99840121      -0.14462054       0.32465723      -0.24604896
Am       1.59051036      13.41703543      15.76076342      -0.09355360      -0.05382402      -0.00306493
Cm      11.47247028       0.31197208       7.49419053      -0.26285976       1.01758063      -1.03057575
Bk      13.34747494       2.83488560       6.29874812      -0.23355645      -0.23104654      -0.03945526
Cf      14.34345891      14.23044215       7.57619040      -0.54155254       0.22990921       0.20021617
Es       2.09662414       2.40082276       4.18637865       0.24404901      -0.47010064       0.07148606
Fm      10.35130050      15.00914413      10.11548786      -0.38807207      -0.07799143       0.04876915
Md      13.94372663      15.14759016      12.07185583      -0.16122471      -0.08050516       0.06800164
No      15.14615161       2.33015378      12.19844165       0.02841637       0.34077820       0.02782468
