102
Lattice="15.834515197809955 -1.068998325208809e-17 2.224673297856356e-25 -5.113238810079219e-14 15.834515197824588 9.258880198984246e-14 -3.2787074293221466e-17 5.203957384021905e-14 15.834515197812046" Properties=species:S:1:pos:R:3:forces:R:3 energy=-484.9751281738281 stress="0.002197420224547386 -0.002017937833443284 -0.0009181955538224429 -0.002017937833443284 0.00401774188503623 0.0004691364010795951 -0.0009181955538224429 0.0004691364010795951 0.00719840032979846" pbc="T T T"
H        4.59274348      10.41088769       2.88255966       0.04179945       0.00130770       0.08776623
He       9.06689208      12.71359812       9.28042971      -0.07317972      -0.01578856      -0.04233042
Li      14.48743006       8.00357501      15.50099088      -0.08481180      -0.23014919       0.03395920
Be       5.99377501      12.75977914      14.10122082       0.07702410      -0.14935437      -0.06647168
B       14.96090930      14.11597517      14.59000789      -0.02194585      -0.05755728       0.10095710
C        0.82116683       5.67960167       4.42995684      -0.13043487       0.13830376       0.29245472
N        8.47122556      13.79056075       7.02568930       0.06954306      -0.34409571      -0.10386191
O       14.65437728      10.25003053      11.91765944       0.32299042      -0.11204499       0.20160815
F        9.62800563      10.41349677       9.14300181       0.32079342       0.09179683      -0.01756865
Ne      10.25342919       7.67210212       1.96585009       0.13458440      -0.33504236      -0.16881055
Na       2.29089589      10.28941475       3.45285763      -0.10874358       0.09255625       0.17891726
Mg       6.98455691       6.95685602      10.18115421      -0.14564091      -0.01119287       0.14667428
Al      15.01610193       6.49589090      13.10165376      -0.27004918      -0.17196245       0.24012445
Si      13.36420141      10.86259199       7.70966235      -0.04344594      -0.00984852       0.06510773
P        9.48926831      11.29190649       5.01335592      -0.14474636      -0.47880107       0.04062289
S        6.90420002       2.09596108       4.70337333       0.22012395      -0.18339998      -0.20080727
Cl      11.80551875      12.22757040      14.07402035       0.26649338       0.10534872       0.06465809
Ar      11.37648210       3.11203046       9.28922708      -0.03467736       0.06920780       0.10969648
K       13.07273228       0.81962410       2.21688313      -0.17593153      -0.00842287      -0.02386105
Ca       0.14160666      11.63613714       6.29588019       0.08497706      -0.11704093       0.15463629
Sc       6.07127735       3.71729470      10.25912517       0.12971410       0.11024778       0.16448364
Ti       2.20819034      10.93988095      13.91337209       0.04270069      -0.45738965      -0.02191699
V        6.37079906       7.02348945      12.94181751      -0.06861031      -0.14519364      -0.13502663
Cr      15.63357057       9.16963918      12.89816438      -0.12276042       0.26314008      -0.26905313
Mn       6.36626532      10.05477829       3.37330828      -0.17488465      -0.13499618       0.14577170
Fe       1.11018957       1.07051557       8.56126951      -0.15620399       0.07876951      -0.60490632
Co       0.27232217       7.69204997      11.52602734       0.40002701       0.23475170      -0.13345242
Ni       0.39103320      12.43056298      14.75668320      -0.71479070      -0.20416893       0.36222327
Cu      10.46458845       0.42778666       0.50924490       0.11641103      -0.36541176       0.23896760
Zn       2.21929860       8.97589391      12.10361136      -0.22538504      -0.08506911      -0.05243259
Ga       8.21850217       5.05137137      11.71961609      -0.22646098      -0.04636505      -0.09013864
Ge      10.48774963       0.52741024       4.57031290       0.05766866       0.05770478       0.07546930
As       1.96079462       0.64411453      13.06472203       0.00582394       0.09803846      -0.26275024
Se      13.39384006       2.26490552      14.38396841      -0.01894641       0.05848771       0.00497672
Br      13.28022985       6.81774974       1.33985440      -0.08172572      -0.19893545       0.23673701
Kr       2.94601756       3.82030509       0.64064136       0.34182566      -0.10101341      -0.12676747
Rb       3.04142838       8.30203961       1.34947982       0.10336658      -0.30695379      -0.19473837
Sr       3.89498756      14.14160809      12.00455809       0.02742727      -0.05683860      -0.42021278
Y        0.90084182       6.39512844       6.55059416       0.03243583       0.07064965      -0.33055177
Zr       5.15440644       1.65339039      12.84781408      -0.15575010      -0.08051844       0.02026516
Nb       7.50645400       1.60209355      13.96483510      -0.11350510       0.19116241      -0.04209599
Mo       7.57964431       2.35234002      11.79041821       0.11661816      -0.33306247       0.10349339
Tc       3.91963978      12.07271498      14.33564811       0.23176184       0.17717129      -0.07486284
Ru       9.11422478       4.00571210      13.93212536      -0.17016095       0.11129790      -0.11016312
Rh       4.61872116       0.36880819       5.90177802       0.29835466       0.05705127      -0.02897607
Pd       0.67730345       8.94135504       5.35557453      -0.05874014      -0.09585199       0.04199380
Ag       9.17627266       4.79419649       3.30634777      -0.04924888      -0.07694760      -0.06636421
Cd      12.98228299      12.28624734       9.93686164      -0.03430145      -0.00338782      -0.02693890
In       0.20804642      10.01431360      15.79129444       0.17875922       0.26821315      -0.07086962
Sn       6.23507412       4.18659319      13.42864072       0.15073475      -0.04049563       0.17445326
Sb       0.40548385      15.45478338       3.32686595      -0.16918676       0.06358884      -0.04802999
Te       7.60863336       4.93935412       8.03411648       0.14192896       0.01951344       0.07859737
I        5.92439733       7.33844148      15.72787655       0.31154501       0.31925923       0.11384664
Xe       4.01042226       9.04501250       8.31601341       0.01707182       0.42740425       0.04433647
Cs       9.40271410      11.94813866      11.78540825      -0.15638444      -0.10049120      -0.05395505
Ba       7.82478260       0.31501845       7.14829621      -0.27336878       0.32675499      -0.03182042
La       2.96747556       2.27117374      10.55554987       0.15072262       0.52673268      -0.06750812
Ce       6.67101879       4.75779054       5.04496100      -0.06070711       0.11182386       0.22090527
Pr       7.78313259      11.20762115       2.84026321      -0.13947240       0.46592546      -0.24089225
Nd      15.59783701       7.29196823       3.43110267       0.09774101       0.04509777       0.10929400
Pm       0.08335780      12.37546457       2.17035382       0.28838885       0.21658656      -0.18327856
Sm       7.39673802       4.34392308       0.56026725      -0.07712710      -0.03984743      -0.08370036
Eu       5.20288441       8.72304525      12.86947729       0.10349268       0.20140472       0.16236214
Gd       4.96174282      11.37801125       0.82944069       0.37186259      -0.01762830       0.17318642
Tb      14.52300766      12.31626539      12.82780729      -0.35445905      -0.16124257      -0.41661716
Dy       9.49195081      14.38055910       2.36801401      -0.17025052       0.22467703      -0.32992205
Ho      15.57669973       3.08068518      12.44819352       0.04164916       0.12510872       0.00725666
Er      15.44781347      15.66116273       6.26899395       0.02381438       0.00409140      -0.19976529
Tm       4.86310064      11.79642697       4.69828352       0.03247075       0.21480548       0.03070331
Yb       3.19000627       5.22853256       4.11829677      -0.02234695       0.04286868       0.03756965
Lu       1.94832211      14.29402363      15.17186721       0.56344366      -0.21958774       0.17733537
Hf      15.47289945       0.55279694      14.51295955       0.20736700       0.58585191      -0.65456003
Ta       5.00062613       3.06700741       5.83356055       0.25516447      -0.35399291       0.00350443
W        7.39735140      10.21224784       5.61214997      -0.04373920       0.71490610      -0.04569292
Re      15.41752215      14.93083453       0.73575293       0.10607935      -0.32432452       0.19641200
Os      14.78692427       9.16888093       7.36398844      -0.01409140      -0.09139116      -0.19857132
Ir       2.26188331      11.75500192       0.65326701      -0.36976525      -0.01719400      -0.13380623
Pt       8.12498094       1.15513514       0.64522331       0.01203503      -0.03052308      -0.09253974
Au      11.27021543      13.97601753       8.45125222       0.09413901      -0.07986300      -0.06092030
Hg       4.02030640       4.82072165       7.62587902      -0.41800344      -0.18159060       0.24895549
Tl      13.41144978      13.40101843       6.71008357       0.16672662       0.22022241       0.05413565
Pb       6.88203741      14.25579825       4.19560142      -0.17751175       0.19707787       0.20973048
Bi      12.83990058       1.54966143       5.67308876       0.16729550      -0.05576882       0.05220338
Po       5.97326770       0.47922787      10.16084366      -0.22538158       0.02293053      -0.08545844
At      13.52335842       6.83221148       6.33539603      -0.02536833      -0.12822476       0.09526047
Rn      10.94251651       8.45460758      12.57925397       0.20958671      -0.04395533       0.01675923
Fr       2.75999133       5.61521239      13.03509866      -0.34377074       0.03263572      -0.06569919
Ra      15.43613281       3.45016605       3.51559694      -0.11066911      -0.03420514       0.27944320
Ac      12.26905626      15.16734198      14.20760341       0.26720607      -0.41597936       0.04807307
Th       3.50972344      15.60087722       7.90234422       0.01647645      -0.15088180       0.10031387
Pa       8.81517865       1.92179028       2.89977444      -0.33451706       0.34289220       0.28144181
U       10.23345153       2.60736669      15.00187298      -0.02249902       0.13467807      -0.08941615
Np      14.25905181      12.69096984       0.69086902      -0.11783504       0.02518614      -0.43710595
Pu       7.59018054      12.22349465       6.68202976      -0.02295083      -0.58535254      -0.32005060
Am       1.01749129       0.42723179      10.36913882       0.01402609      -0.28086352       0.97921944
Cm      14.25403251       4.61042762      15.51629658      -0.21984112      -0.04994293      -0.28092274
Bk      15.13029827       9.53371466       9.73141374       0.09735717      -0.13624564       0.46484178
Cf      10.39023528      13.70114675       5.66519495       0.07718481       0.19651170       0.45412081
Es       2.37640032       2.39637048       6.33778250      -0.10997930       0.01531865      -0.02609621
Fm       5.58215329      15.10914764      15.41973111      -0.00492316       0.23157197      -0.03351626
Md      10.08287564       3.34197798       6.04787149       0.04190964       0.19909441      -0.29988036
No      10.58957330       9.86716007       7.28287755      -0.05941304      -0.07333061       0.23982938
