102
Lattice="15.871546805513246 2.0458596188448787e-19 -5.709148687885097e-24 7.769073943317243e-14 15.871546805527903 1.0851060501520714e-13 7.915642146813366e-19 -5.010374446612803e-14 15.87154680551144" Properties=species:S:1:pos:R:3:forces:R:3 energy=-494.12078857421875 stress="0.0009424161980859935 0.001240599260199815 -0.0011345124221406877 0.001240599260199815 0.001961758127436042 -0.0015016028773970902 -0.0011345124221406877 -0.0015016028773970902 0.004144102800637484" pbc="T T T"
H       15.26521624       8.31704435      11.45382321      -0.02200857      -0.07873547      -0.01399751
He       7.98577780       0.32403694       6.82348211       0.06302961       0.03083192      -0.04906419
Li       0.56492173      10.56982678      15.50070144       0.07480329       0.12680954       0.08177444
Be       3.28852043       7.17574782      15.69220354      -0.05960196      -0.10366955      -0.01021519
B       15.26383481       0.59641067       7.10025526       0.27904990       0.23621687      -0.06442302
C        0.70542396       7.08195847       5.98668466      -0.29160517       0.14845920       0.12532282
N       11.49210832      10.08694772       1.35474560      -0.06110226      -0.03668249      -0.22288089
O        9.40023997       7.83303813       6.82771410       0.18215956      -0.30498904      -0.49953687
F        1.38819510      15.04944340      13.59818328      -0.30756286      -0.10535978       0.14262213
Ne       8.04914315      15.65061582       1.95342000      -0.06794858      -0.05790659      -0.04498050
Na      10.40170164       8.34034945       0.11501230      -0.01859843      -0.05587019      -0.09893028
Mg       2.00184370       1.40565605       2.53981097       0.02062203       0.00185784       0.11199356
Al       8.36926718       0.90038166      10.23516772      -0.04657590      -0.00711143       0.13334864
Si      13.14118405       6.62300333       4.11394509       0.10648710       0.01256704       0.18336965
P        1.01255230       2.37342020       0.21015854      -0.19939826      -0.08999327      -0.29238066
S        5.34777129      13.54958221       7.42561392       0.30217457      -0.18345651       0.04070631
Cl       3.90095119       0.91681946      14.39227419       0.23631403      -0.21581277      -0.29336816
Ar      12.59623329      13.07386668       0.05931826      -0.00303805       0.16430084      -0.01366292
K       14.36791687      10.57734783      11.81632221      -0.06342682      -0.02857237      -0.06335113
Ca       1.82100156       5.02665330      14.62395596       0.04627579      -0.19002913       0.06973818
Sc       7.59145610      13.83791578       6.14063009      -0.19513530      -0.33776683       0.14647810
Ti       3.39848591       3.16259249       6.51587273       0.06995866       0.12858951       0.04976436
V        3.47795683       7.66782038      13.17093432       0.16150126      -0.05876386      -0.20060647
Cr       7.64567150      15.31311733      12.08222802       0.29022694      -0.40840155       0.35502946
Mn       9.21544158       5.51594609       2.88612864       0.42997533      -0.01121283      -0.09325077
Fe       4.29836830      15.38008529      10.52730978      -1.00712025      -0.45364851      -0.29447758
Co       0.91920864       0.18747959       6.23526723      -0.09216411       0.10872549       0.06464761
Ni       6.88495135       9.35292719       9.05717209      -0.10612808      -0.25172567      -0.06223053
Cu       2.44870999       5.79780697       1.54031525       0.14529601      -0.07208489       0.03221972
Zn       2.87769722       3.59006221       3.89599381      -0.27944073      -0.14268567      -0.18945388
Ga       6.88001743      12.84965215      11.94875769      -0.07752901      -0.06458560      -0.03159531
Ge       9.38153662       8.05382923       2.83132841      -0.08251236      -0.28262329       0.00185251
As       1.42024607       4.10266780       7.87216357       0.17113332       0.17007610      -0.08213745
Se       9.43990009      13.84322583       4.22739386       0.11013031       0.03013495       0.05885874
Br       2.43777913       9.29751704       3.07458264       0.07938597       0.10355450      -0.06995541
Kr      11.32268340       6.45856097      10.21250714       0.05728205      -0.02891026      -0.04365591
Rb      10.30667715       9.52749763       8.55160595      -0.04426184      -0.00017458       0.12053312
Sr       3.40149315      14.16045849      13.16094588       0.13336006      -0.02945673      -0.05187394
Y        0.39428266       2.55224282       5.68192362       0.01159540       0.06406182      -0.26909360
Zr       6.97028819      12.24721263       8.92183942      -0.26917541      -0.03354853      -0.04281980
Nb       7.23565818       6.78755115       3.66929751       0.17145526       0.11243036       0.10085130
Mo      11.46049302      15.12169961       5.20129186       0.19393978      -0.42651981      -0.03023940
Tc       1.12229846       3.77304929      11.82776804       0.00447232       0.03645456      -0.14475578
Ru       6.37456353      10.68014501      10.88429317      -0.13935286       0.15649572       0.31651932
Rh      15.45493390       6.78771324       3.42468924      -0.41753912      -0.37562448       0.06819856
Pd       4.68962650      12.88307412      10.76080001       0.05262092       0.11048069       0.09284803
Ag      11.59267004      11.88282711      10.37003726       0.19720536       0.06182580      -0.16162723
Cd      13.22423263       1.38995952       5.80676253       0.18277478      -0.01887232       0.40490070
In       7.21720004       7.50147201       7.07275191       0.08357032       0.07917244      -0.08624247
Sn       8.16948993       4.52255994       5.23572753      -0.08675294      -0.21988115       0.09439594
Sb       3.12750976       7.23989707      10.62201351       0.02736722       0.19357938       0.20204094
Te       1.19682697       8.21137223      14.42162747       0.02732521      -0.06733736      -0.00311477
I       13.27579130       6.74131551       0.16656558       0.13990466      -0.05533877      -0.04159707
Xe      15.18485275      14.13621826      10.87492299      -0.00284328       0.00145722      -0.01142295
Cs       4.03293747      10.94568810       5.73972007      -0.03838503       0.00238793       0.04303560
Ba       9.50006103      11.28495102       1.96541691      -0.26275438       0.20174569       0.02022880
La      10.17537952       0.97762468       4.42495518      -0.23387569       0.33910304      -0.20325476
Ce       5.12931918       5.43825630       3.99842436       0.02255468       0.05206397       0.37588322
Pr       5.83704008       1.92357260      12.30957790      -0.04429199       0.70446837       0.31590593
Nd      15.00756663       5.45730532       6.26422311       0.02480367       0.38776505       0.13970503
Pm      10.41294761       6.89753507       5.42352979      -0.14607096       0.23815455       0.29300976
Sm       6.15335218       7.78550284      11.06525478      -0.14689976       0.01861715      -0.02835744
Eu       2.87976706       4.17037692      10.42469841       0.08282176       0.04984981      -0.11689210
Gd       5.05143575      10.39064088      13.13285912       0.28393468       0.13286281      -0.16784209
Tb       6.02199608       2.25677307       4.70365173      -0.30458117      -0.01040494      -0.11239547
Dy       3.90385014       2.83697384       0.41805641      -0.37833744       0.00462019      -0.13179070
Ho       2.18794336       6.66318212       4.46962383       0.38278329      -0.17562617      -0.08717945
Er       0.28765463       6.42203272      11.69455883      -0.03708027       0.10740260      -0.04336595
Tm       3.49610006      15.55636729       7.74662556      -0.12407351      -0.02450126       0.09380290
Yb      15.70299235       3.95853187       2.29387685       0.35497081       0.11922225       0.59115773
Lu      15.41207356       2.79268984      13.78736101       0.04327956      -0.19635394       0.05089960
Hf       5.58501746       7.23708189      14.60900434      -0.10388474       0.11117432      -0.14989170
Ta       7.63166419       6.94298553       0.96106538       0.42130625      -0.05309002      -0.07122403
W        3.02239562       1.19493774       5.20685405       0.11097234       0.16456607      -0.03493217
Re       8.68857760       3.12806756       2.87378161       0.27155375       0.16025370       0.00678405
Os       8.86855742      12.46680787       7.58603256       0.17311627       0.31826472      -0.25593314
Ir      15.48862442       0.84442246       3.58387758       0.27752340       0.03096146      -0.13922453
Pt      15.33166094      10.17857980       1.80775312      -0.08593693      -0.31369257      -0.01354206
Au       9.21884446       4.83368250       0.20394616       0.13682303       0.30507833       0.15211490
Hg      15.66128388      12.83501244       2.06613270      -0.02251631       0.54715061      -0.13965029
Tl      14.28326047      14.59251224       5.13110710       0.16548570      -0.02119222      -0.09282184
Pb       6.61481831       4.42962924      14.61138689       0.12113090       0.05001059       0.01191664
Bi       4.99549756      15.24653964       4.58082725       0.04201083      -0.10625317      -0.04459581
Po       7.28593592       9.52002518      15.37272044      -0.08741323       0.15135227       0.06964454
At       6.24160278       4.52693655       9.95933903       0.01495440      -0.00478210      -0.09387699
Rn      12.14678203       2.70753771       0.37975758      -0.44197005      -0.04986754      -0.07512370
Fr       9.98418213       3.26834730      12.83864067      -0.12295628       0.01811694      -0.00367516
Ra      10.83067356      14.94087502       8.51614968       0.30155295       0.11652002      -0.07720625
Ac      15.78471547       2.09086230       9.53004537      -0.12682433      -0.13641313       0.02754576
Th      12.85931268       9.19902290       2.51177377      -0.12164305      -0.04264050       0.06336456
Pa       0.32734437       7.72512720       1.44446420       0.13396220       0.11306752       0.20333073
U        5.17455081       5.60866919       1.42454120      -0.12300557       0.46238708      -0.06891724
Np      15.38759530       0.14723031       1.33123506       0.06688793       0.02064677      -0.35124612
Pu       6.94012254       4.12430867       1.85961921       0.07623684      -0.11513954       0.58283657
Am       0.49129923      15.65229131      15.34413664      -0.15217447      -0.16217855       0.23817620
Cm      11.25986548       5.60536160       2.34267264      -0.70463783      -0.12944415       0.09795728
Bk       5.98203423      15.84675877      11.32489928       0.51975715      -0.37801111      -0.00315195
Cf       1.84528895       6.95387217       7.86881010      -0.11661732      -0.15449701      -0.09609967
Es      15.24328463       8.72237226       5.55934967      -0.13030654       0.20502257       0.00090531
Fm       4.93338121       8.29006559       1.77454735      -0.05649453      -0.01486361       0.05703878
Md       9.76397312      13.22585883      12.08878154      -0.06814951       0.06742793       0.00891572
No       1.65739823      14.41341509       4.25821440       0.04188291      -0.39204374      -0.26304126
