102
Lattice="15.63355500194178 7.922776265080722e-18 5.20797023199463e-21 -1.0832856879304713e-14 15.633555001946991 -2.113066657283243e-13 -6.980659676083646e-17 1.3647076104272398e-14 15.633555001939419" Properties=species:S:1:pos:R:3:forces:R:3 energy=-493.687744140625 stress="0.004665173590183258 0.0011697288719005883 0.0013459231122396886 0.0011697288719005883 0.002650001784786582 -0.00047265333705581725 0.0013459231122396886 -0.00047265333705581725 0.0013495385646820068" pbc="T T T"
H        2.08610424       8.40164889      11.73536363      -0.34727567       0.06004477       0.03338453
He       3.37182250      12.95137207       8.43329009       0.20288181       0.06110276      -0.08529329
Li       9.66548187      10.85018679       1.65225266       0.02983720      -0.10585099       0.07767866
Be       1.63041912       8.02048751      10.41816848       0.08336899       0.36538804       0.44139963
B       10.55054578       8.98665439       5.29894619       0.16392896       0.23450667       0.02019222
C        4.59065473       4.08105014      12.59366102      -0.19193606       0.28229862       0.25492120
N        7.14272783      15.55794805      10.09977265      -0.44040498       0.52474612      -0.07179096
O        7.86010709       1.95253431      13.75013140      -0.00731784      -0.40765208      -0.27182806
F       10.59776193       2.02423367       7.96912481       0.14933488       0.07107685       0.08830819
Ne       8.65733052      10.31211751       8.18488785      -0.04552177       0.12400141       0.08210306
Na       8.43486651       0.38161088      12.23336483       0.15928833      -0.34862927       0.02047145
Mg       3.62884794       5.82154888       1.75542470      -0.00830877      -0.03878622      -0.04118274
Al       2.84824576      15.31497873      10.29185621       0.09993809      -0.20500365      -0.11399610
Si      14.85155282      11.36254253       3.98617933       0.32096711      -0.43918291      -0.02897674
P       10.93230916       4.85275572       5.51206965      -0.15930271      -0.27338180       0.14466292
S       12.39820515       8.96548265      12.15390728      -0.22966637       0.02164817       0.06321809
Cl       0.21979972       8.23123954       5.44840130      -0.00718683      -0.05107796      -0.10103051
Ar       0.12133870      11.89603623      13.77835100       0.03084564       0.05612543      -0.06272466
K        3.07986893       3.02413491       3.93462573       0.05360615       0.12784895      -0.05153076
Ca       0.71729439      14.58022226       3.48030599      -0.01275416       0.20584095       0.16062969
Sc       2.89473309       9.73843025       7.96579276      -0.00587866       0.03894544      -0.22371891
Ti      11.69343521      14.41639778       3.15753886      -0.16656478       0.04597740      -0.13808823
V       15.04650474       2.79511755       2.75890855      -0.32104331       0.03025860       0.05615947
Cr       6.56983093       5.39985789       4.71900879      -0.41710675       0.04270953       0.08766997
Mn      11.29410138      14.26602048       5.01588867      -0.29772672      -0.43403125       0.35678986
Fe      13.06003498       0.24792927       4.79533022       0.31502712       0.18273598      -0.23503706
Co       8.26865608       5.23099474      14.07256366       0.31194130       0.06004190       0.28097558
Ni       0.79372709       9.62573486       9.04087562      -0.08783282       0.05041379      -0.05220145
Cu      11.76416604       4.34575628      13.98044263       0.05420187       0.00573062       0.00311294
Zn      13.93944266      14.22012338       1.83127659       0.30279651       0.22631802      -0.27041036
Ga       8.77212482       8.12235930       4.58516798      -0.04503911      -0.49675199       0.03702712
Ge       6.62436715       9.78141194       4.37643503       0.11385496       0.26239368       0.00001919
As       3.05129899       7.09574822       7.58841238      -0.25072843      -0.20620678       0.12843609
Se       3.61616598       8.25402094       2.73710116       0.06251857       0.10862387       0.04640912
Br      12.14012918      10.47518849       1.38192598      -0.01892541       0.05403566       0.19770075
Kr      11.17119110      12.15347591       8.85884567      -0.05918793       0.33709282      -0.31730205
Rb       2.11600494       6.33104368      13.45709085       0.04509320      -0.08624509       0.03376691
Sr      11.59936632       8.46678685      14.70761934      -0.03173081      -0.27384335       0.00757378
Y       11.87773530      11.16783435       4.36624728       0.10075546       0.07525609       0.11502349
Zr       0.45297172       7.42258366       7.96488099       0.18939030      -0.09702295       0.11075383
Nb      15.16726471       5.34698010      10.17862928       0.31257135      -0.23868273       0.30794200
Mo       9.34017042      13.23372735       4.25218394      -0.27752456       0.14486536       0.01127326
Tc      11.39507841       2.28080321      12.74948454       0.15372077       0.02723134      -0.09514663
Ru       8.90972421       5.76125917       5.51071054       0.35116440       0.34175277       0.05824554
Rh       1.85552812       6.02130051       9.65852877      -0.49529719      -0.26315284      -0.45629963
Pd       8.45668888       6.51936467      10.10061961       0.27641502      -0.65803272       0.14579242
Ag       1.11917833       4.87873521       1.67268752       0.06519009      -0.07895877      -0.04157005
Cd       8.95523086      10.70823862       5.28507619       0.17203248       0.29779932      -0.12425333
In       5.70957165       2.79031858       7.95826672      -0.07590223      -0.05864901       0.08381811
Sn      14.32070397       5.01128795       7.57332252       0.05320498      -0.05084424       0.14895636
Sb       3.35992298      14.36781764       5.86249023      -0.05506213      -0.08502331      -0.08745250
Te       8.29186816       9.18578733      15.40747530      -0.11464899       0.27641690       0.26214433
I        2.55815571      13.19603926       1.28341206       0.07917982      -0.10480993      -0.12835012
Xe       6.15320105      15.20977081       0.04841073      -0.14602169       0.29392737      -0.79283941
Cs       4.37976129      10.10636227      15.45180705       0.05016081       0.16956106       0.09659718
Ba      11.90410394       3.65846038       9.59190971      -0.21030095       0.11714023       0.07500234
La      10.66672369       1.93635104       5.58758634       0.02453792      -0.33261454      -0.07064627
Ce       6.57014268      14.75931844       5.29112076       0.16365196      -0.07732785       0.01725662
Pr       8.66303555      15.28077186       3.85835358      -0.04693167      -0.14985669       0.08042444
Nd       5.31254541      14.98075530       8.43336204       0.10035107       0.25439727       0.43283489
Pm       9.73588276       7.14410414       7.49411196      -0.10259922      -0.20338997      -0.05414171
Sm      12.32240140       7.19846953       5.03957745       0.00795627       0.12348467      -0.01361614
Eu      13.63134818       2.53963806      12.50829347      -0.29515246      -0.03046098      -0.03553829
Gd       1.39614512      12.39869901       9.34004808      -0.09050471      -0.06677166       0.05654728
Tb       6.89218086      12.21347068       2.97145461      -0.04699065      -0.26256531       0.33959681
Dy       4.91806454       7.87572279       5.65457752      -0.14037499       0.00206961       0.06498942
Ho      13.42958426       3.76806242       0.43929496      -0.02651447      -0.05938306      -0.11189809
Er       7.87453022       2.94226689       0.07452289       0.09459807       0.35584682       0.42346641
Tm       8.07420221       7.58705888      12.56577879       0.18791145       0.57771713       0.26467279
Yb       8.65657005       1.47621003       8.99614769      -0.08683196      -0.23767591      -0.01117990
Lu       6.83461578       6.59025320      15.59214715      -0.09394656      -0.34794325       0.12593466
Hf       4.94991409       4.16137954      15.16691192      -0.12634256      -0.25698972      -0.07279134
Ta       6.15267801       2.52102800      12.97762665      -0.58525240      -0.41148603      -0.05909196
W        6.26446401       4.98506630      13.00359205      -0.16094965       0.43087876      -0.28641814
Re       6.08834459       4.59754469       1.91892841      -0.18771315       0.16388965      -0.15876997
Os      15.32670908       3.07015012      10.66890535      -0.09404817       0.36218682      -0.21677308
Ir      13.73604348      13.30275449       4.17491412      -0.06061876       0.69305491       0.16101137
Pt      10.32826704       6.13238888      13.37243746       0.11397123       0.05774812      -0.17366478
Au       6.98161268       3.62531234      10.52204302       0.06262023      -0.12479536      -0.19946896
Hg      14.92307262       1.01220356       0.76160084      -0.21362931      -0.39659861       0.10263123
Tl       4.17965150      15.47158339       3.05579800       0.34092018       0.02955295       0.18729889
Pb      11.28020315       7.04987719      10.94360279      -0.02749759      -0.07355553       0.22533941
Bi      14.08853004       5.57771616       2.86083448      -0.12095420      -0.03238240       0.07156330
Po      13.13944147       8.09238642       8.05689687      -0.09719640       0.00906391      -0.08206095
At      15.31171306       8.17503757      15.35485121      -0.18478718       0.19935194      -0.18743041
Rn       0.87286037       1.93115387       6.89886049      -0.04958308       0.00293862       0.01342309
Fr       2.22224822       0.31855807      14.31514548       0.05332379       0.00232944       0.03861509
Ra       5.16504863       6.26402223       9.80676629       0.23313965       0.08179092      -0.03187937
Ac       2.85075894       3.14701876      10.71750229       0.05622265       0.25977907       0.15694886
Th       5.15254760      11.74077169       6.02931852       0.20296557      -0.00020865       0.01889281
Pa       0.75465103       7.77913574       2.66341645       0.19445860      -0.02921569       0.04371524
U        5.55942207       0.96516641      10.43257666       0.20681924      -0.39086828      -0.31738234
Np      13.64425108       1.80537974       3.81747848       0.26373327      -0.07559824       0.21446779
Pu       6.42803547       7.56139255       2.78191809      -0.58354592       0.66293573      -0.48223412
Am       7.66996540       5.87066636       3.14499065       0.39125168      -0.73766458      -0.28968957
Cm      14.98814682      10.43410624       6.85777433      -0.08303846       0.23738530       0.15023875
Bk      14.38306771       8.81747609       2.88438323       0.00456870       0.08858269      -0.02850306
Cf      13.09785043       3.57390567       5.21520682       0.26227850      -0.25805214      -0.54764414
Es       9.13564257       3.50015385      12.58937576       0.70418727      -0.10423738      -0.26142621
Fm       0.89107101      12.40303475       6.07761929       0.09259996       0.00343718       0.18312335
Md      15.50182571       0.16356104      10.32501134      -0.05216523       0.03172326      -0.04016001
No       7.07464549       2.69007015       4.75067046       0.01808286      -0.29253983       0.11228108
