102
Properties=species:S:1:pos:R:3:forces:R:3 energy=-30480254.6805628 free_energy=-30480254.6805628 pbc="F F F"
H       15.96014968      15.17505926      19.74465246      -0.27994156       0.46572416       0.29410554
He       9.35892992      34.12711131      35.90594831       0.00038635       0.00027099       0.00021172
Li      20.52756869      14.07797139      22.30114866       0.10885427       0.01600978      -0.09682853
Be      20.25678946      23.24366737      19.51054877      -0.04900370      -0.14376832      -0.17554402
B       19.94009032      21.22474384      19.27284388      -0.22430568      -0.02029953       0.98681369
C       19.13799240      24.26720437      18.64863677       1.28772498      -1.12881697       1.07096058
N       16.92384860      24.45466714      15.76968680      -0.48441855      -0.95935190       0.64748274
O       18.42875981      14.19896857      16.06026578      -0.01144923      -0.51800376       0.53136689
F       19.00200386      26.67008427      20.48850378      -0.62616962      -0.22492361      -0.17895514
Ne      17.77329655       7.09417060      31.07935332       0.00020317       0.00023381       0.00014625
Na      22.15933679      14.79401144      13.66059138       0.08039912      -0.04377837       0.00578324
Mg      15.54235713      18.80091082      13.84168808       0.28903670       0.06772882       0.47092479
Al      16.71277607      22.21905323      21.10033476       0.07433369      -0.11336519      -0.24997789
Si      20.94159382      20.89245948      15.30983040      -0.66248482      -0.69480336      -0.47920725
P       24.23157728      16.95340171      19.70176490       0.11345635      -0.35669615       0.10905388
S       22.29703259      27.06538102      20.83615236       0.25745841      -0.30816875      -0.52089044
Cl      14.71358777      24.85743644      13.42861704       0.00168478      -0.07678181      -0.10028201
Ar      30.37393339      15.66952034       5.49025996      -0.00063585      -0.00000559      -0.00034178
K       18.05687323      11.62471800      16.32497573       0.19675513       0.09259058       0.16083797
Ca      20.17372158      27.15719709      22.15284065       0.17842339       0.43765302       0.86023623
Sc      18.15080961      24.69289250      20.53929766      -0.20271039       0.12771596       0.67343446
Ti      21.96352314      18.88093363      16.89613382      -0.31006189       0.18677316      -0.76039663
V       17.71544164      24.74391344      17.55249268      -0.56567211       0.30455751      -1.51885340
Cr      22.02200794      17.10386149      19.04894215      -0.01546559      -1.33055192       0.03462613
Mn      17.51062384      18.01806838      17.97875583       0.67519264      -0.79627337      -1.12573455
Fe      20.61026297      15.33859927      19.66425266      -0.02610799       0.13099377      -0.19534560
Co      17.18486187      20.47481979      17.28560144      -0.12620931      -0.66798029       0.27942779
Ni      19.67353249      18.88376820      21.86081395      -0.22555068      -0.29293813      -0.43465818
Cu      15.63382746      18.78128341      19.10883396      -1.40096798       0.64570855       0.00077318
Zn      15.01699749      18.82717209      16.77350851       0.38403528       0.61987919      -0.08163701
Ga      17.51553239      17.83988186      22.47428080       0.30057187      -0.51719333      -0.24752272
Ge      21.63507166      20.20730728      22.15673835       0.47609966      -0.27854989       0.35285908
As      18.67301299      27.05793389      16.66122179       0.10111403       0.30272712       0.33053865
Se      24.92580355      22.91502231      21.62732870      -0.15381694      -0.12484646       0.20927842
Br      14.72255017      27.06176412      16.27954382      -0.56516430       0.41756382      -0.50510331
Kr      34.00075802      19.26922747      36.66812100       0.00039496       0.00025478      -0.00048889
Rb      16.79885618      14.07938597      22.43535318      -0.05879155      -0.00847158       0.07585888
Sr      23.23318074      13.86481495      19.61401499      -0.19338443       0.34260900       0.53227649
Y       21.94703561      17.09255285      21.81359830       0.25774192      -0.19276712       0.37641516
Zr      19.56702675      21.74474743      21.63768371      -0.33358270       0.43724223      -0.46177965
Nb      15.59198927      21.42636349      18.67241030      -0.02849515      -0.47870960      -0.41267874
Mo      19.55225936      19.97039642      17.45194559      -0.84016567       0.71829677      -0.31146443
Tc      23.48099459      19.04633873      18.73933027       0.65330481       0.72499398       0.61987719
Ru      16.57956541      16.80771531      20.26685885      -0.04938548      -0.44312309      -0.06226395
Rh      17.58920484      20.33297327      22.63048615      -0.91667253       0.80119821       0.24827371
Pd      19.66032491      16.46416381      23.22812294      -0.24813644       0.03620638      -0.07720590
Ag      20.31234152      17.01522319      12.53368157       0.00084850       0.03145873       0.03274030
Cd      17.73520412      18.13077631      11.76035984       0.25889159       0.17754984       0.62208981
In      13.07838936      19.98394594      18.92621753      -0.01224721      -0.06523254      -0.11510223
Sn      24.55948184      19.65910895      16.31201147       0.62928933       0.34705545      -0.26854897
Sb      19.98736593      24.40733567      23.19164654      -0.19787489      -0.24224056      -0.17936107
Te      18.88248525      24.40596539      12.88435650       0.22572668      -0.00237588      -0.26954616
I       22.35528891      21.44460064      11.60859359       0.60795509       0.09175538      -0.19839581
Xe      25.27739657      35.74046615      22.05109487       0.00135308       0.00193705       0.00002918
Cs      25.45183517      26.53445443      20.03927802       0.07281932      -0.00611097      -0.00171974
Ba      22.56599602      22.52502645      24.12478897       0.51518809       0.05331977       0.10523165
La      24.47743826      19.80957387      21.33321975       0.17667580      -0.55868210       0.27725173
Ce      20.64479580      25.07060279      15.56070078      -0.27602950      -0.90535621       0.25042912
Pr      19.39879857      21.24385137      12.71796411      -0.25652000       0.69955888       0.25188340
Nd      24.79509448      21.94752135      18.75572020      -0.62094131       0.11738204       0.22080111
Pm      18.05890028      15.79217249      14.60331560      -0.07648008      -0.36330195      -1.13297143
Sm      23.60196598      16.41851257      16.75881268       0.13353770       0.11618707      -0.01254873
Eu      22.66015390      19.08757174      13.75327777      -0.24611401      -0.88893796      -0.06758428
Gd      15.90483223      22.27124033      12.96297624       0.13759058       0.16847316       0.41150378
Tb      16.86452047      14.93569181      17.66394204       0.67205961      -0.03175136       0.23062410
Dy      23.60623980      22.36403993      14.82781235      -0.15763754       0.51781785       0.13552061
Ho      20.39207812      26.10896901      18.73198584       1.07854940       1.26292141      -0.01981826
Er      16.29490721      27.16115986      18.52716987       0.34186433      -0.49138245       0.11944525
Tm      17.00733660      26.20530666      14.42881851      -0.14158634      -0.52590540       0.65170678
Yb      19.38572778      19.21424105      24.70192754       0.42707617      -0.06111526       0.37098273
Lu      20.42517548      14.55325028      16.81497007      -0.40224801      -0.23290751       0.21274201
Hf      17.83409379      19.77803060      19.96187475       0.98924712      -0.82741216       0.25902977
Ta      20.99863902      19.23952081      19.66294405      -0.44731792       1.12286442       0.70440545
W       18.17900585      22.35553372      18.79376982      -0.99761144       0.34264248      -0.69846000
Re      20.14943992      17.27699422      17.72459852      -0.26939716       0.93860763      -0.07353806
Os      15.98763920      24.06472083      18.99080665       0.73296351       0.60953740       0.01427673
Ir      20.99119642      16.86806275      15.31881451       0.35358094       0.22385226      -0.69418587
Pt      15.38043399      21.22022344      15.69534434      -0.06090438      -0.27770060      -0.48546843
Au      15.22574285      16.47903931      15.74865178      -0.33270094      -0.13507873       0.02831941
Hg      18.74689399      29.41765765      19.61146369      -0.09401953       0.03462167      -0.14455080
Tl      23.19248652      24.56089303      17.69311140       0.03050285       0.05419276      -0.59163751
Pb      22.91793371      19.12272136      24.46149711       0.16470470      -0.31390590      -0.24620295
Bi      19.27581134      13.07343023      19.60168989      -0.07313880      -0.53136093      -0.30363493
Po      23.22160633      13.23118665      16.43362156       0.03791929      -0.27562558      -0.41174779
At      23.39415101      13.62858113      23.08071363      -0.08372353       0.11934893      -0.14332882
Rn      29.51770322      23.04430568      23.62805901      -0.02243164      -0.00108697      -0.01002064
Fr      11.74130142      19.73978438      15.23107031       0.14666437       0.06152679       0.05487855
Ra      17.10824420      23.05049761      24.53299375      -0.00222472      -0.24276145      -0.25074341
Ac      14.92009671      19.51124184      21.89893761       0.10090213       0.16101158      -0.06361617
Th      14.84983090      23.86468392      16.43726784       0.61285189       0.27945856      -0.19997332
Pa      18.85355555      16.38261165      20.14962413       0.49408530       0.36554786       0.76119207
U       18.32279840      22.57435857      15.66007728      -0.34222282       0.99712588       0.04595127
Np      19.21946753      18.76120982      14.65367215       1.07123322      -0.04768803      -1.24822624
Pu      22.69076154      21.94079162      19.88056349      -0.15805346       0.76496262      -1.31557862
Am      17.91672747      17.66054906      16.03001958      -1.76361827       0.54863497       1.94272287
Cm      21.87597373      21.68010123      17.76174084       1.86634911      -0.79360628       1.45430013
Bk      17.96604908      20.68349655      14.38173917       0.21604076      -1.31564609      -0.31369108
Cf      20.35943847      23.06553743      16.83720920      -0.47970966       2.33175931      -1.08367226
Es      22.48237496      24.29997258      20.74854087      -0.09274963      -0.54736295       0.00138873
Fm      13.98877338      23.19144213      20.33668179      -1.38301901       0.03842645       0.71356906
Md      13.83347154      16.68319909      18.60312379       0.16352945       0.02751392      -0.03387616
No      21.66733431      16.02537360      25.18082011      -0.10789950      -0.07927984      -0.16966848
