102
Properties=species:S:1:pos:R:3:forces:R:3 energy=-30480234.8152149 free_energy=-30480234.8152149 pbc="F F F"
H       20.90734118      25.43632190      21.62920226      -0.04981709      -0.11397129      -0.93907656
He       8.78420948      16.46180464      11.77763031      -0.00006370      -0.00014987       0.00041108
Li      20.62556234      15.28869703      25.17517410       0.03012023      -0.76317587       1.02678171
Be      22.21050202      16.06376450      23.63541906       0.99337674       0.51864135      -1.16998473
B       21.33512244      17.42127135      22.17427970       0.54957291       0.67484068       0.81202348
C       22.97560842      17.10440648      19.37739837       0.88327203      -1.81225686       0.42041772
N       21.47720796      15.32317713      17.34708452      -0.37911828       1.60858943       1.15332065
O       25.63105721      15.14553824      22.15823277       0.15093169       0.27121302      -1.07936553
F       25.44733450      15.69291391      19.14356826       0.79190133      -0.25995767       0.39819802
Ne      24.67383240      29.44836854      27.67833426      -0.00081722      -0.00312246      -0.00314823
Na      22.46673587      25.02010264      26.12516390       0.10138702      -0.24774257       0.09148186
Mg      15.65153513      13.96145810      17.06631941       0.51883902      -0.10432857       0.49812604
Al      18.92876996      20.21564568      23.99994790      -0.59280174      -1.25482658       0.89519929
Si      24.36845387      22.59891000      22.50077419       0.96526578       0.32154601      -0.23640285
P       25.97339031      18.59723985      22.83656941      -0.07370950       1.17046994      -0.13434098
S       15.00819663      16.72416903      24.79712717       1.04526549       0.07062173      -0.46132205
Cl      15.99772681      20.68291328      27.59917272      -0.03709253      -0.00763962      -0.20897242
Ar      32.36169323      25.23394032      27.90463572       0.00094186       0.00002639       0.00017961
K       26.78301960      22.15408572      17.11823402      -0.09994324      -0.18107144       0.25543729
Ca      21.46428144      26.04615528      19.03617803      -0.27733334      -0.56619006       0.12866537
Sc      14.93217687      21.08026573      21.54239368       1.02695126       0.06778887      -0.75642704
Ti      19.90471767      23.79552726      21.13255316       0.35978288      -0.28061163      -0.53096067
V       18.52181213      22.42087710      16.17646053      -0.26930151      -0.69400758       0.36146673
Cr      20.39017532      17.56511956      24.31304668       1.08110649       0.21556233       0.05970722
Mn      22.18563426      21.02021880      19.35381360      -0.93594999      -0.92327460      -0.54078914
Fe      22.42187310      16.23551339      21.20864820       0.88807679      -1.45502474      -0.64082663
Co      20.38610467      22.33349650      22.77753989      -0.43108176      -0.57922900       1.51182177
Ni      24.48454126      21.16282864      19.53219231       0.71657699       0.28255867      -1.42385347
Cu      19.23875968      24.67078491      17.22747537       1.05745173       0.91973533      -0.50155812
Zn      16.90856117      15.93139396      15.81848833       0.19919301      -0.51693402       0.00008144
Ga      18.49813481      25.44759301      19.48873846       0.68887808       0.14685986      -0.00567169
Ge      25.80690524      19.27511495      19.56740447       0.61785162       0.33340331      -0.14842035
As      15.32873839      22.64149067      19.08173665      -0.77305915       0.04241099       0.05276845
Se      23.67275352      17.08125074      15.65099414       0.55272308      -0.03487192      -0.07260676
Br      20.51959798      16.28245423      13.47547631      -0.39783181       0.21182627      -0.30909884
Kr       4.91522729       3.48629674      15.64617667       0.00006053      -0.00015454       0.00050922
Rb      24.16210879      20.41971348      14.27043784       0.34830590      -0.39792070      -0.38217403
Sr      14.79615046      19.62310141      24.78112559       0.51505355      -1.84506270       0.28944544
Y       20.83854321      17.30698070      16.01642108       1.21556177      -1.51962502      -0.68590241
Zr      24.93460288      17.01526695      20.85057385      -0.62040444      -0.80714559      -0.21881620
Nb      24.14140888      20.17750466      21.60546020      -0.17536062      -1.53130608       1.05194460
Mo      23.58197446      18.16672628      23.27170553      -2.30047850      -0.92365015      -0.22491561
Tc      21.81298497      19.24509197      25.76056256      -0.82260744       2.03519653      -1.42149821
Ru      20.64584496      19.11104708      18.44814125      -1.61186880       0.33591068       0.21051547
Rh      16.93017225      19.50079238      22.36062203      -1.03404278       0.20634759       0.53456569
Pd      22.93131232      22.17570466      24.24463505      -1.38608262      -0.39114044       0.38752524
Ag      15.62330785      16.27913465      18.90852174      -0.10095993       0.03281149       0.32767461
Cd      24.37801286      26.77707450      21.64821344       0.05055297      -0.00969056      -0.20928063
In      14.76453642      18.10116658      21.27948088       0.34868403       0.50353837      -0.65548968
Sn      23.05614758      22.34283834      17.43557088       0.90888787       0.79471611      -1.37192367
Sb      20.57882382      17.42203486      27.35431634       0.95882318      -0.61895870      -0.04788954
Te      23.27241752      13.78521576      25.03506408       0.07498199       0.71138506       0.09466374
I       16.30804545      13.20068171      22.59880031      -0.25294403      -0.77704833       0.19393475
Xe       0.09316942       9.88407004      23.57399036       0.00013699      -0.00002220       0.00072335
Cs      13.02754589      16.35202208      15.95950516       0.16780747       0.28414678      -0.02768030
Ba      18.71881883      19.29570258      13.50834866      -0.18509297      -0.39700588      -0.48086392
La      25.87397274      16.06361639      24.06256519      -0.10435846       0.08939348      -0.12495251
Ce      20.71142364      21.48856631      26.22848525       1.06997468      -1.56565181      -0.91258709
Pr      18.00976418      17.19107850      25.69568507      -1.67014379       1.18130845       0.17531657
Nd      16.88169649      16.17307527      22.49072767      -0.04746440       1.46024987       0.57076172
Pm      24.01548733      13.70321646      22.06294669      -0.30750091       0.66808444       0.14813197
Sm      20.05750678      15.16118524      22.28324937       0.33759519      -1.20722716      -1.13023605
Eu      22.42997483      24.71985549      22.76884018       0.22934376      -0.75839186       0.63415615
Gd      23.50346228      18.91277807      17.70551392       0.46419393       0.65734369       0.10716865
Tb      23.36545624      16.83002563      26.09565331      -0.81969347       0.48561881       0.35750734
Dy      15.62701437      20.94126379      16.69449507      -0.11668879      -0.63685451      -0.79837211
Ho      24.34233067      23.63790541      19.86555565      -0.29479473       0.73111156       0.37580903
Er      16.61143088      25.22880597      17.62537956      -1.12721191      -0.48245435      -0.77492217
Tm      27.06426682      21.19846487      21.77698915      -0.86608518      -0.46592217      -0.30535710
Yb      19.56848336      14.03023902      17.19227278      -1.20378894      -0.66830596       0.05574786
Lu      17.83140702      17.92931652      17.72832077      -0.34196891      -0.50148647       0.38111101
Hf      20.68679832      16.41789944      19.10684955       1.65098183      -0.40879702      -0.85016903
Ta      21.39215287      19.60599199      22.90227199       0.97170480       1.75224782       1.08658649
W       22.20135734      18.60832662      20.35361032       0.12179458       1.64998548       2.47260299
Re      22.13489754      21.83394101      21.30754675       0.15996242       1.13128663       1.08128608
Os      17.32843372      23.42311648      20.56544792       2.35706872      -0.77350299       0.74109265
Ir      19.29327811      19.46308735      16.18766734      -0.84961175       1.88626149       0.74436937
Pt      18.30767442      15.75401641      19.55607685      -0.59585219      -0.38503425       0.50587618
Au      16.23962841      18.23899014      15.27579328      -0.19679011       0.36856862       0.25948795
Hg      17.90734022      24.19233681      14.47730966      -0.24592896       0.59858828      -0.49365542
Tl      21.10558266      21.18770420      15.18068221      -0.07256443       0.20646909      -0.31236703
Pb      19.76905591      24.28876080      24.76156756       0.24014257       0.29456430       0.27069798
Bi      21.59514371      12.89402591      20.35623932      -0.26925878       0.65419394      -0.64852100
Po      14.32444520      22.54431629      23.98875702      -0.48338223       1.34588177      -0.26259200
At      26.49544869      17.75670907      26.79172868       0.23493499       0.05004483       0.94526368
Rn      18.03608254       5.31109663      18.29308616      -0.00078723      -0.00171269       0.00038643
Fr      12.81298486      15.14902187      22.18267518       0.03945566      -0.10950911       0.26457079
Ra      21.79841514      24.49588635      14.70936561      -0.34086644      -0.02370748       0.56529216
Ac      25.03372498      20.57705741      25.21923015      -0.46999822      -0.76602327      -0.60100085
Th      23.50889102      15.21728810      18.07801010      -0.65605095      -0.21413997      -0.89020803
Pa      17.63862628      22.68847231      23.15985625      -0.58432874      -0.01860045      -0.26005371
U       19.24977694      18.48478913      20.90862857      -1.14213282      -0.93126517       0.50394759
Np      20.15434769      21.81516759      18.25224028       0.80716326      -0.12097025       0.82035108
Pu      17.42523515      20.69096686      19.55411157      -0.29417596       1.04664990      -1.03891566
Am      18.94734762      17.09145524      22.88873324      -0.55737640       1.43420439       0.68531776
Cm      18.03767220      22.61664054      18.13499675       1.15994761      -3.08716431       0.50268327
Bk      18.93400304      20.82502694      21.11739810       1.80654585       0.11060092      -0.63285667
Cf      18.18335463      19.01356032      27.24181414      -0.38345193      -0.28232398      -1.43264246
Es      17.05191693      22.23585482      25.55677113       0.73199362       0.07234803      -0.24214759
Fm      19.08404050      26.11878971      22.07813154      -1.04873859       0.47242243       1.05796289
Md      15.27184926      24.54360972      21.15909598      -2.32243850       1.76101478       1.09772084
No      18.37359302      12.47372018      20.39254631       0.03007097       0.55757267      -0.56797959
