102
Properties=species:S:1:pos:R:3:forces:R:3 energy=-30480230.7285593 free_energy=-30480230.7285593 pbc="F F F"
H       12.79390026      11.03733440      21.80573169      -0.55676144      -0.64840632      -0.82632415
He      31.18435727       0.04399670      32.97239299      -0.00037715      -0.00008119       0.00017535
Li      14.84004087      17.91149608      21.96039485      -0.44068469      -0.02893387       0.02057204
Be      18.00853994      14.07814963      18.24600119      -1.00054365      -0.66063830       1.02992003
B       19.14498608      12.66811952      21.45971730      -0.42831263      -0.78025753       1.28955591
C       21.18075893      13.39449711      19.38042778       0.45233839      -0.02559266      -1.23184676
N       18.83299620      15.20457943      17.50345913      -0.42964362       1.05514441      -1.05187776
O       14.03327431      16.21696912      21.93411219      -1.12978967       1.17113127       0.58644035
F       13.67452924       6.69741563      21.57025960       0.69966530       0.64209073       0.00460267
Ne      32.90420434       0.94191400       2.22167941      -0.00013189       0.00017094       0.00019725
Na      24.91614704       6.51841743      20.65710106      -0.52091926       0.24075090       0.24138282
Mg      17.68288292      12.43399668      14.25556438      -0.32499557      -0.23463819       0.48443723
Al      17.36917821      14.66509884      23.73917756       0.14050135      -0.22973971       0.41439909
Si      14.72716085      10.15681904      22.88937070       1.07967724       1.02384300       0.77329471
P       21.71141635      16.81439724      23.56641901       0.19628425       0.15569821       0.11032632
S       18.03299944       5.32774199      20.49148064       0.21428118       0.61782287       0.25278655
Cl       9.92648229      13.89381041      18.39173889       0.30662563      -0.37784029       0.20779427
Ar      11.43474847      30.87028854      38.17175844      -0.00039689      -0.00011053       0.00027270
K       11.55610866       9.43200319      14.88532848       0.00228536       0.03482190       0.10496257
Ca      11.37333793      13.64232297      16.14255287       0.50714596       0.14423400       0.31663933
Sc      14.74596352      12.53864648      16.61322099       1.39657740       0.13974124      -0.13967337
Ti      20.01142546      15.00995341      19.11001906      -1.71154841       0.05993235       0.17991388
V       21.01415542      14.04296789      21.32876332       0.23035792      -2.11602289      -0.62587695
Cr      17.60444805      12.06668987      23.00135970       1.00314958      -0.21327558      -0.80647043
Mn      17.60800411       9.79840265      24.13142937      -1.71863624       0.88517474      -0.87007695
Fe      18.51927110       9.69583350      19.22131819      -0.43129252      -0.54165257      -1.92601627
Co      18.52301856      12.29977141      25.06307090       0.19117103      -0.42401288       0.35551828
Ni      19.64368108      13.85852302      23.37460813      -0.52118447      -1.38886505      -0.54095689
Cu      18.49494932       7.64633414      21.14087063      -0.59539380       0.81891979       0.10668059
Zn      15.42230558       8.73738036      25.24932585       0.41469668      -0.05831659      -0.58118967
Ga      17.73330759      11.89805372      17.46740910      -0.51773162      -0.05804281      -0.14555796
Ge      17.38464115       7.74423708      16.79692201      -0.69054593       1.08456766       0.08410306
As      12.94729128      10.90122660      17.39767660      -0.19964480      -0.24472596       0.72022407
Se      24.59062066      11.98003812      24.18020450      -0.28549704      -0.19811214      -0.46981258
Br      22.33702779       6.12194332      24.59435832      -0.12407035       0.39751280      -0.35329037
Kr      33.47890867      18.08713664      12.39566273      -0.00021168       0.00009356       0.00034244
Rb      17.85078295      20.96196380      21.36750600       0.00497853      -0.36114957       0.17494292
Sr      15.34991880       8.07683932      14.26414241       0.84603579       0.20748086      -0.59315652
Y       17.12464203      15.39681344      15.87719250      -0.23994574      -0.26355594       1.24108160
Zr      19.61740939      16.05483116      22.22843812       0.37848146       1.76254237      -0.64008441
Nb      16.68710635      12.21345218      20.19540194       1.11251431       0.05185516      -0.96022541
Mo      18.89006993      10.34886232      21.40122203      -1.29727456       1.24742440       2.70023430
Tc      23.75567187      14.28687007      21.28373671      -0.01546703      -1.82607624      -0.18715226
Ru      15.51338775      14.61066325      19.02631522       1.00820926       0.03342535      -0.40175261
Rh      22.35305045       8.72002934      21.05064862       0.40872801      -0.36373022       0.94516533
Pd      16.58658578      10.35401196      15.71185869       0.03989513       0.27463979      -0.06002666
Ag      21.63908021       8.38635205      16.27964035       0.92110141      -0.59155357       0.91843544
Cd      21.11358456      13.55675962      26.93142858      -0.29086086      -0.12885519      -0.40382785
In      17.17543238      17.50340053      23.23243785       0.01066882      -0.21245413      -0.48654184
Sn      18.12524508      10.00616791      26.76281668      -0.22961718       0.34742793       0.16874090
Sb      17.60552790      14.64437048      26.61467970      -0.41704552      -0.14107192       0.11669771
Te      17.15587625      18.56991419      15.82475253       1.06251819      -1.09333319       0.16906829
I       27.86279416      10.64669650      19.46014116      -0.70488420       0.18285849       0.33375572
Xe       3.04923160      17.17943366      10.12076604       0.00085191       0.00095766       0.04575408
Cs      27.97467422      12.96982237      23.68605336      -0.43856911      -0.16139868      -0.24488371
Ba      14.25480544      17.75548387      16.90690123      -0.79716840       0.00584432      -1.09759416
La      19.42679285       9.93100639      15.81628077      -1.06237402       0.45039353       0.35293314
Ce      23.68162639      16.34951878      21.09983881      -1.53405960       1.88171876       1.00994298
Pr      11.25871191      11.22310249      19.57764511       0.48962567       1.95314276       0.22186369
Nd      24.51199862      11.70413797      20.23763806       1.35412888      -1.14864038       0.56178853
Pm      15.90217375      12.04581193      25.85431458      -0.21102667       0.13431523      -0.82209044
Sm      23.61075370       9.23836738      23.88074842      -0.25008393       0.29382642      -0.40265198
Eu      22.94459311      14.45691268      18.28967192       0.42463550      -0.07716971       0.56067740
Gd      13.41116599       8.82268920      20.54986854      -0.50744837       0.13498973      -0.35140997
Tb      22.67806750      14.31715404      23.98606854      -0.18930932      -0.43112989       0.22881567
Dy      20.58272010       5.89498356      22.00939068       0.57418845      -0.25789630      -0.39034076
Ho      16.20279028       7.26109866      19.48717106       0.55909699      -1.92410101      -0.81100832
Er      18.50260355      12.58407732      28.50384664       0.36882622      -0.39337969      -0.13123191
Tm      19.97427191      16.86140752      16.61963315      -0.15352022       0.56601019      -0.04152825
Yb      19.42683323       6.13165394      18.17995193       0.46420286      -0.00669042      -0.18903147
Lu      15.41738854       7.54302466      22.54066218       0.40448776      -0.59393600       1.51631763
Hf      15.95414837       9.93951291      18.42809409      -0.54593872       0.33354531      -1.19980276
Ta      15.18567715      14.86476923      21.37630570       0.16867992      -1.25966399       1.59412757
W       19.46151604      12.28876257      19.34705588       0.41153318      -0.58162222       1.11411432
Re      17.90421081      14.28914126      21.08847656       1.04054519       1.58376639      -0.62136965
Os      16.34137912       9.65124955      20.99349375       0.16929420      -0.27019169       0.99809429
Ir      15.51634149      13.05101574      23.21143807      -0.70145107      -0.48080383      -0.61485220
Pt      13.88289538      14.86313541      17.04868574      -0.27917811      -0.50221939      -0.13061788
Au      22.31250437       7.01509099      18.99751009      -0.13192582      -0.95211889      -0.12984675
Hg      32.18183056      35.10746199       8.86091793      -0.00015727       0.00012425       0.00047040
Tl      23.22218154      10.99419083      17.30818144      -0.68646154       0.07047810      -0.21009265
Pb      14.07958435       7.76564938      17.01546093       0.07878035       0.23494935       1.29555616
Bi      20.92852484      17.46754454      19.48762966       0.76229040       1.26999454       0.43046821
Po      14.26528818      19.31872858      19.67143682       0.26323343       0.10987883       0.85273890
At      19.24887392      20.52870094      25.09147220      -0.09601322      -0.34985604       0.10456183
Rn       2.92418295      17.11287876       5.82199195      -0.00146937      -0.00057020      -0.04602818
Fr      25.02532130       7.72718466      17.12602293       0.40029910       0.19810901      -0.26081876
Ra      14.14461290      15.95517007      24.94944320       0.70937698      -0.20378377      -0.61901921
Ac      19.55951993      17.05770677      25.71680420       0.46977027      -0.09465368      -1.11435264
Th      16.90911741      16.82567397      19.62893184       1.15242096      -0.21480596      -0.88246059
Pa      20.63497107       9.30724255      19.44870485       0.49986039       0.43895148      -0.19944319
U       20.32816667      11.04192383      24.20658123      -0.64135340       0.29254206      -0.14000230
Np      12.89907967      13.14082773      19.45158353       0.00128978      -1.46836404      -0.30247298
Pu      18.53787556       8.14301575      24.24906160      -0.20074059      -0.30021579      -0.07548129
Am      21.29199554      11.58144413      22.16807718       1.34776962       0.04611227      -0.60473133
Cm      22.31474161      11.53329801      20.15419686      -1.16323945       1.12213492      -0.30628292
Bk      14.31103825      11.90445654      20.62445859      -1.28825087       0.75573840      -0.00387932
Cf      20.49465319       8.64806838      23.42261301       1.04656069       1.15000861      -0.41239190
Es      20.80928209      13.39691280      16.63481699      -1.06758737      -0.49213186       0.43228120
Fm      12.81965645      12.56906723      23.42162318       0.09919405      -0.33076742      -0.35738543
Md      12.73817323      16.25809826      19.85432738       0.36936366       0.14318225       0.20278379
No      21.16821882       9.66788599      27.02490446       0.51254027      -0.04286318       0.43888708
