102
Properties=species:S:1:pos:R:3:forces:R:3 energy=-30480251.670459 free_energy=-30480251.670459 pbc="F F F"
H       14.73904224      24.03420223      18.49925779      -0.19564016       0.70286839      -0.02546963
He       7.19628240      29.57636006      14.14793287      -0.00011933       0.00000866       0.00020620
Li      16.05216493      13.94472718      19.07928685       0.04316495      -0.10467726       0.16544352
Be      22.44133891      18.26123060      17.04799114      -0.05911183       0.35252668      -0.16340126
B       18.40784631      17.79222732      20.69792414      -0.76116525      -1.07448441      -0.32816556
C       20.93332657      22.92020340      18.43289179       0.19849707      -0.77865702       0.50400577
N       23.20594575      23.53361726      20.67506668       0.05469776       0.31928664      -0.53343558
O       15.46678895      18.21533240      23.19171178      -0.58173337      -0.48240259       0.33095075
F       20.75003316      13.79416954      15.73161173      -0.32497535      -1.03438856      -0.50842132
Ne      26.98410298       4.57155111      17.23868231      -0.00001921       0.00007195      -0.00028087
Na      15.78416326      22.76068542      24.11060083      -0.12161641      -0.34027583       0.25706243
Mg      15.75065516      24.62204797      20.05908061       0.07615378      -0.05503437      -0.17620635
Al      18.19556476      17.24298549      16.83728282       0.43605002       0.46325773      -0.01452412
Si      19.55618075      23.84146692      21.84823425      -0.54884705       0.02486375       0.82121717
P       17.80783959      15.69004699      23.50052508       1.00275505       0.13491356       1.36155185
S       21.23126173      26.45927628      19.50794891       0.23274897      -0.00540257      -0.50987983
Cl      19.11539639      12.81071105      25.53617683      -0.14098625      -0.88690972       0.45669890
Ar       7.00903046      13.97419644      14.62203530       0.02605493       0.00979184       0.04904712
K       24.64767498      18.33297495      11.70481241       0.13301201       0.05980143       0.02121740
Ca      23.15581940      21.34221090      14.15123078       0.75328138       0.23312816      -0.07182899
Sc      24.85433459      18.97963249      18.62806630       0.27374553      -0.69734378       0.72475700
Ti      17.96013105      19.19973051      18.87085480      -0.46166942      -0.83423914      -0.21677461
V       14.92094033      22.30337436      18.45729760       0.33894712      -0.26296541       0.07322370
Cr      17.55990011      16.16317694      19.37326121      -0.39906981       1.47705296      -0.96474856
Mn      22.37358756      17.46487931      19.28468970       0.30443379       0.63535521      -0.60551572
Fe      20.54178887      20.28834795      24.03781868      -0.69495986       0.49897186       1.35299846
Co      19.55468985      21.52786804      18.51913504       0.53242750      -0.49295100       0.06672516
Ni      20.34787739      18.94759677      17.71606333      -0.38352172       0.87373603      -0.39113937
Cu      13.33345323      20.44844993      17.49568849       0.51709831       0.27852039      -0.64174323
Zn      13.06791012      20.88644297      19.74633289      -0.20703894       0.18593996       0.47737309
Ga      21.02609850      22.74953085      23.47674408       0.40593112      -0.38144498       0.16586991
Ge      14.45404587      21.97951204      15.99204792      -0.27214833      -0.31153478       0.22247876
As      21.47107268      14.87027647      22.83835677       0.66724664      -0.63033029       0.50134738
Se      24.32690839      20.15341460      24.41317486       0.82710677      -0.21754983       0.67933912
Br      17.95536628      24.14650080      13.86439187      -0.15196165      -0.12283807      -0.09222011
Kr      36.28887997      28.81355158      29.33324817       0.00001299      -0.00006462      -0.00008178
Rb      17.79357525      26.63994545      23.63073758       0.04128007      -0.17051346      -0.25376999
Sr      26.72887659      21.11940118      16.21619447       0.60347683      -0.47010971      -0.39373501
Y       15.68440238      19.02219903      16.22028464      -0.50202666      -0.35678833       0.59142338
Zr      22.19681635      20.80995918      18.08516174      -1.00563405       0.53440068      -1.43994744
Nb      19.48981716      15.92743735      21.48080150       0.10940800       0.33229003       0.68050689
Mo      18.99259683      17.94376813      23.05264764       0.33833084       0.84124567      -0.25456535
Tc      15.35121843      19.49890509      19.57520469      -0.58456098       0.59366400      -0.23126966
Ru      20.88488543      16.83123865      16.32365590      -0.42139998      -0.63685750      -0.01191097
Rh      18.82361032      16.27807997      14.25630615       0.44979109       0.13022909       1.14046547
Pd      17.12551251      23.83461955      22.05998881       0.41431315      -0.05609350      -0.32794421
Ag      14.94391604      22.02831753      21.16466388      -0.12286886       0.09323176       0.75148784
Cd      22.32799751      18.21082392      14.26154566       0.39967592      -0.24305246      -0.19337825
In      13.08198956      18.14616320      18.49791074       0.03134744      -0.36961417      -0.04232630
Sn      19.13530304      13.99690433      19.49132676      -0.27643276      -0.93904877      -0.23934990
Sb      24.69264277      16.09530730      18.92997742      -0.06620910      -0.32778333       0.12892917
Te      15.61783866      18.87012243      13.13745828       0.03971879       0.19046158      -0.25720892
I       14.66407418      12.83041518      21.24001671       0.26928793       0.24987015       0.11750718
Xe       9.45723889       7.92361861      10.54655481      -0.00083653       0.00038544      -0.00044776
Cs      12.62512935      14.64006045      17.26237873       0.06547415      -0.05438778       0.10479669
Ba      17.97395995      12.77369722      22.84325513       0.15820875      -0.07975513      -0.56718487
La      19.96722765      22.76525366      15.90391409       0.06066227       0.33675186       0.35197244
Ce      21.94727529      14.99888709      17.35778138       0.10271742       0.61546675       0.43628664
Pr      23.09973166      17.55424487      24.58244970       1.30836737      -1.07562321       1.28890684
Nd      15.94078840      16.10323399      21.82645980      -1.03446086       0.99648896      -1.51388948
Pm      22.16132158      25.19151777      21.63724373      -0.36386784       0.71851648       1.68017106
Sm      18.41898832      14.19089069      16.48162649       0.46678721       0.32343813      -0.43203621
Eu      19.29056721      24.49686717      19.17521425      -0.22707543       0.82192062      -0.27097158
Gd      19.94049272      15.25109827      25.25433127       0.22282161       0.72339357      -0.62152688
Tb      24.75775133      22.14874567      19.64563125       0.55829829      -0.05586541       0.66187680
Dy      25.59759575      18.88630332      21.94969892      -0.07768757       0.05506673      -0.24416083
Ho      23.87168496      22.25559434      22.66758782      -0.18937895       0.48847889      -0.19399766
Er      21.33247666      14.99347554      13.90991045      -0.49644041       0.74195523       0.24082686
Tm      16.61148046      21.47980247      14.31144808       0.35708281       0.28995880      -0.28319008
Yb      24.89395682      16.98077281      15.72846326       0.14457462      -0.47766776      -0.15625544
Lu      22.57848470      24.40131497      18.62204391      -0.58143651      -0.27619293      -0.27398001
Hf      21.39025379      22.21471595      20.63376390      -0.15115822      -0.01748438      -1.17243770
Ta      20.16033648      19.05800969      20.32610111       1.41074224       0.90279522       0.75222445
W       20.04813489      16.82006847      18.92711206      -0.98675681      -0.46489121       0.79293492
Re      18.30929583      20.23446164      16.54549573       0.36273952       0.07685759       0.49157460
Os      22.99983323      19.99812017      20.35952722       0.06596452      -0.23474905       0.80693205
Ir      20.99952518      20.28725705      15.49597610       0.03145598      -0.32339698       1.12628477
Pt      24.09605339      19.73444830      16.41602678      -0.73671979       0.39165310      -0.75972351
Au      16.00674589      15.84516065      17.15945194      -0.29587806      -0.12662815      -0.57945449
Hg      18.03499764      20.63242315      25.13321795       0.18582675       0.20342550      -0.05345954
Tl      18.91186032      23.47217570      25.21544374       0.05222855       0.06463218      -0.28464332
Pb      20.46818667      18.29161850      26.15582454      -0.75599773       0.22779135      -0.29173432
Bi      24.42325814      23.07550622      16.81487543      -0.21473655       0.20061394      -1.25117863
Po      27.47630802      20.24294478      19.43731319       0.04573358       0.09453568       0.08585875
At      26.32670411      21.48961448      12.56319072      -0.25140660      -0.12728243       0.23437570
Rn       5.29686082      13.32940770      11.14460720      -0.02348684      -0.00962900      -0.04882351
Fr      11.26237388      19.57768884      14.92188103       0.30601631       0.13342727      -0.00004685
Ra      15.72057049      25.07547555      16.21265161      -0.00592946      -0.31321559       0.35245719
Ac      16.62986020      17.90058410      25.29533202       0.11705583      -0.65490473      -0.47611186
Th      19.14219721      18.76785385      14.28085948      -0.45146636      -0.76297895      -0.75652346
Pa      16.78490463      19.44157720      21.99018600       0.96460226       0.62802684       0.05214921
U       17.79859629      21.90035662      20.04941771      -0.15329905       0.49529033       0.37022621
Np      21.85860694      19.81710585      22.66515156       0.33723585       2.29859167      -0.35545883
Pu      22.60900864      17.00350639      21.20451880      -0.31781172      -0.63807804      -0.62313009
Am      15.94599812      17.31318562      19.72234595       0.16459633      -1.40142518       0.48743653
Cm      16.78347294      21.72651424      18.00018921      -0.21121473      -0.22665964      -1.82835663
Bk      21.51869366      17.68140944      23.03715873      -1.83952309      -1.51963991      -0.27264607
Cf      18.59574196      21.03503342      22.06668324       0.34589868      -0.21246930       0.95497192
Es      22.04294765      14.45867548      20.09399461       0.64847994       0.47488946      -0.38502491
Fm      13.53568330      18.70501880      21.73190031       0.01403585       0.07292877       0.25953571
Md      22.29578461      21.14416900      26.27434446      -0.53171132      -0.09865403      -0.65215226
No      16.05853712      15.96441811      14.12812583       0.16439437      -0.15783421       0.06415673
