102
Properties=species:S:1:pos:R:3:forces:R:3 energy=-30480243.1372045 free_energy=-30480243.1372045 pbc="F F F"
H       24.60701662      22.93739903      20.12127364       0.39960301       0.08077100       0.29682958
He       4.14854513       6.21125573      16.58027101       0.00063540      -0.00037510      -0.00034646
Li      18.02246569      11.67567152      24.14383999      -0.33120529      -0.33499319      -0.28952652
Be      20.65550360      17.65466013      20.97347202      -0.33596669      -0.01220394      -1.52956689
B       18.68600373      20.61304071      22.59501436       0.09263250      -0.54415200      -0.33917847
C       18.10752699      15.33433176      27.09134593      -0.42925046      -0.63290352      -1.64695534
N       16.41833783      14.59487601      22.45172823       0.20900717       0.63350749       0.80511402
O       20.22698329      13.85164671      28.45685137       1.12189439       1.32900981       0.93898905
F       20.44469443       9.43829954      21.78108423      -0.28237159       0.45296120      -0.09474777
Ne      35.04487022      21.51332279      18.93434105       0.00013921       0.00022566       0.00033801
Na      16.07892750      14.29447724      28.48541960       0.14219598       0.45960157      -0.27081684
Mg      26.72869605      15.90107306      22.91708270      -0.03969859      -0.17705129      -0.24081190
Al      20.98536918      18.14769290      24.50552304      -1.20572645       0.12518423      -0.13996820
Si      21.85216724      21.18081306      21.49895760       0.37058787       0.71985976      -0.94081714
P       22.41270172      12.24266618      20.79646902       0.59558741       0.93696583      -0.30568678
S       17.31208168      11.58075481      21.76999190       0.33380670       0.79082911      -0.21011631
Cl      17.48569486      16.82745016      29.67632633       0.15262221       0.59750729       0.31939212
Ar      33.97620891      35.94259104      36.04308336      -0.00014690       0.00005580       0.00073179
K       20.16861285       9.28773391      24.14700760      -0.04562555      -0.24844703       0.37055758
Ca      25.93092723      20.64383306      20.47707052      -0.37487944       0.41071206       0.43454703
Sc      22.94006393      18.96698424      20.30707447      -0.48491131      -1.30941393       0.98289141
Ti      16.72962545      16.50701508      22.37199092      -0.44857115      -0.29612052      -0.22684608
V       18.35294230      16.57179083      20.21501972      -1.41230769       3.86621686      -1.58420488
Cr      20.12326650      22.05261147      23.13623162       0.79203162       1.06867400      -0.16773111
Mn      18.25706210      18.76950139      21.63401611      -1.13785280       0.27325577      -1.15705521
Fe      16.99853588      14.10956806      25.75561062      -0.95741688       0.68664917      -0.32106194
Co      17.64755235      20.54007115      26.11089155      -0.00054669       0.68378752       0.15274550
Ni      17.32004685      21.49219487      23.63706475      -0.68588016      -0.86774819       0.20475322
Cu      21.94566594      17.26286984      22.56622884       1.17972193      -0.90160565      -0.46891474
Zn      18.02180764      24.71128233      25.65604971       0.26006095       0.40580850       0.23137670
Ga      20.32437717      16.68579999      18.40738320       0.11342516       1.06013342      -0.00502892
Ge      20.56242820      12.60920226      23.84002771       0.61245641       0.16698410       1.43656351
As      16.45817536      21.23914175      28.25270256       0.62780245       0.13871328       0.15916754
Se      24.13618174      19.94307932      18.17980235       0.96615596      -0.79019004      -0.74318775
Br      20.47839743      22.81663007      17.38524456       0.34316004      -0.31492081       0.86627468
Kr      25.89331421      25.74925480      31.04097813      -0.00720061      -0.00776966      -0.00546793
Rb      25.03501058      11.65014108      18.96571535       0.01996363       0.13934443      -0.04561048
Sr      23.67547847      23.76031371      22.34555451      -0.42978274      -0.38206899       0.12372380
Y       19.39260843      13.29614309      26.70195680       0.49802735      -0.22542700      -1.91254458
Zr      18.36459024      14.09540183      23.13760087      -0.81874795       0.25993641      -0.08293498
Nb      18.64355602      16.28722553      25.19234026       0.08250158       0.65129601       0.51765761
Mo      20.98547385      14.31818586      21.84964894       0.51369779       0.94340979      -0.44794274
Tc      22.83942342      14.23369321      25.62858042      -0.06768741      -0.70057751      -0.34022007
Ru      22.59056324      16.24097216      19.88078316      -0.31521457      -0.62163441       0.69958193
Rh      24.78269123      14.34049226      23.76072977      -0.24263068       0.33990373      -0.96957663
Pd      24.83156325      17.62237121      21.85541009      -0.44712130       0.16192129       0.12875043
Ag      18.00243192      23.76272215      23.49283807      -0.44144490       0.62300783      -1.07606832
Cd      20.24863392      25.19776483      23.30417869       0.12431187       0.63503374      -0.97391392
In      14.43479288      19.97636222      23.34270272       0.16641944       0.25340443       0.45932273
Sn      23.84616494      14.92599633      17.65127611       0.45456664       0.35803515       0.17988032
Sb      15.27090778      16.34224141      19.56434162       0.61198538      -0.41906353       0.52884548
Te      17.12037469      11.41397096      26.44015189      -0.62452956      -0.21087812       0.90004590
I       24.37858572      15.24994757      30.35324080       0.15910308       0.08116942       0.14066046
Xe       3.73451104      35.12533092      15.80229734       0.00002136      -0.00037253      -0.00002800
Cs      26.56397342      14.92723709      27.15939708      -0.01404540       0.02538494      -0.18760558
Ba      12.91017750      16.74467903      22.16098632       0.33531963       0.89943122      -0.09954683
La      23.40264821      22.34361421      26.51086363       0.15783597      -1.54208301       0.42522312
Ce      15.35283861      14.82504631      24.81222637       1.99211642      -0.53849558       0.92824929
Pr      22.50790897      14.72563036      27.74017701       0.54512828      -1.04466527       0.88626362
Nd      16.39378697      19.29519025      20.95632755       1.11395841      -0.50181118       0.47858879
Pm      19.69832673      23.21704794      20.73896369      -0.27683009      -0.21584399      -0.17519842
Sm      23.71934942      18.29750189      29.63533448      -0.89212965       0.17215748      -0.61526560
Eu      22.92211789      22.10797783      19.08612769      -0.77503869       1.35660759      -0.74380662
Gd      19.11334038      19.56613826      29.26219193      -0.47347886       0.55971097      -0.35987347
Tb      19.84993689      19.84530423      19.23082548      -0.09969465      -0.18195822       0.28926424
Dy      25.91643418      17.18419871      18.75425869      -0.47579451      -0.11506910       0.35504932
Ho      15.05158453      13.43535421      21.44850260       1.13523820      -0.71244031      -1.15221838
Er      23.45048470      11.93020328      23.33005084      -0.40200322       0.34254321       0.10046041
Tm      23.52581373      19.68978989      23.57625875      -0.94820464       0.79145379      -0.36590674
Yb      26.73751723      18.97128423      24.09799686       0.61763103      -1.59110708       1.15064647
Lu      20.01471551      11.48247794      21.44520434      -0.59488807      -0.89644730      -0.65763054
Hf      23.71490434      16.63016837      24.63099957       0.24924286      -0.60731236      -1.13826244
Ta      17.72748033      19.08516210      24.19633527       0.15687304      -1.16107251      -1.14929199
W       21.06048133      15.36958717      24.24206720      -0.59886216      -0.18152708      -0.06280053
Re      19.26556243      16.84360240      22.65417231       1.15060252      -0.78538178       1.60885432
Os      20.49015797      19.52032870      22.38076047      -0.62566001      -1.10652486      -0.32147588
Ir      19.41571546      18.62914495      26.50067239      -1.07946558       0.03494806       0.08535859
Pt      15.40155602      17.57050203      24.10444411       0.18186609       0.67564438       0.70538529
Au      17.50883141      21.58892245      19.69930461      -0.23002271       0.46035554      -0.29991088
Hg      27.63131416      18.34382988      21.39853875       0.30409557      -0.51546162      -0.73709928
Tl      21.12002291      24.03042422      25.51885052      -0.26038946       0.18640774       0.54265194
Pb      24.49379360      18.70533192      26.55691886       1.19265483       0.35649363      -0.24843623
Bi      21.69104507      21.41279990      29.54003651       0.24752478       0.23019659      -0.19295741
Po      26.01238283      21.70852357      23.60515153      -0.49117883       2.38792464      -0.13317706
At      12.58481934      13.45122615      23.06486589      -0.95940459      -0.33784431       0.62299103
Rn      30.10450577      35.70305148      28.83567007      -0.00106857       0.00024484      -0.00141335
Fr      17.81770896      11.69677629      30.27999535       0.26429244      -0.01187986      -0.13537559
Ra      18.78330921      23.98269014      28.62003279       0.33915557      -1.02433690       0.07420886
Ac      15.50912124      22.58346922      25.67795755       0.27136203      -0.57709108       0.12303555
Th      16.52846146      18.57955904      27.12279536      -0.00431742      -0.95099029      -0.48141234
Pa      23.75431614      14.93902708      21.48680281       0.06984683       0.51456188       0.17007208
U       19.76338544      16.18525276      28.07803878      -0.25213975       0.07070957       0.20900553
Np      19.82242817      21.20817625      24.90259131      -0.13890650      -1.32502150       1.97244806
Pu      21.77301888      16.77381997      26.88087543      -1.57219568      -0.40772108       1.28620096
Am      19.47279389      14.98730672      20.25995106       2.30580591      -2.14075056       0.80063487
Cm      21.93633752      18.75165386      27.87850379      -1.00129717       0.61775671       0.05145965
Bk      17.59996597      13.96389542      19.79349362      -1.74018083      -1.81161896       0.16329277
Cf      21.52059117      20.51237370      26.30351020       1.03957708       0.09698255       0.94341047
Es      21.25968494      13.75959785      18.57037735      -0.27805659       0.21983759       0.84491779
Fm      17.52074189      16.72737170      17.34263868       0.11145882       0.03181904       0.13090056
Md      22.46395790      17.67462668      16.90995486       0.50398971      -0.00371187      -0.03371098
No      15.46050999      22.75325874      21.80618196       0.52227046      -0.07896301       0.00193906
