23
Lattice="30.0 0.0 0.0 0.0 30.0 0.0 0.0 0.0 30.0" Properties=species:S:1:pos:R:3:forces:R:3 energy=-13961.0350892859 label=CC chargeA=1 energyA=-7738.76386157005 chargeB=-1 energyB=-6220.47808514827 distance=5.690705127008064 pbc="T T T"
C      -23.00700000     -14.39400000     -25.47600000      -0.69902091      -0.75330680       0.65287932
C      -23.86700000     -15.59000000     -25.01000000       0.54022160       0.53450759       2.35559299
C      -22.00600000     -15.99600000     -27.05600000      -0.00837973       1.27218157       0.31933751
N      -22.00900000     -14.81000000     -26.46800000      -0.50291940      -0.34870639      -0.02343831
N      -22.97400000     -16.87300000     -26.85700000      -0.57339954      -1.76724206      -1.26909466
N      -21.03500000     -16.32600000     -27.87900000       1.83030176      -0.47050530      -1.21950425
H      -23.65000000     -13.61700000     -25.89000000       0.06849366       0.32652106       0.12670392
H      -22.47300000     -13.98600000     -24.61600000      -0.10233027       0.49301737       0.10937452
H      -23.24100000     -16.45200000     -24.76000000      -0.01467466      -0.39767784      -1.07630033
H      -24.75600000     -15.73900000     -25.63000000      -0.11033169      -0.31861290       0.30138773
H      -21.30800000     -14.13600000     -26.74300000       0.10855604       0.19049848       0.00342126
H      -23.91000000     -16.51500000     -26.79400000      -0.22091234      -0.23467575       0.19009341
H      -22.88300000     -17.78900000     -27.27300000       0.01703936      -0.08269867      -0.25912284
H      -20.27200000     -15.69400000     -28.06100000       0.31374409      -0.01402229       0.04784428
H      -20.98400000     -17.25100000     -28.27500000       0.03445105      -0.04352040      -0.18461387
H      -24.16288000     -15.59000000     -23.95054000      -0.77852330       1.71978297      -0.03157711
C      -22.52196163     -10.66596984     -22.58440081       0.67844879       0.45513050       0.69215040
C      -23.75496163     -11.32196984     -23.10140081      -1.41995788       0.36313342       0.41516871
O      -23.59396163     -12.32196984     -23.84240081       0.39560261      -1.34439497      -0.95728857
O      -24.85896163     -10.80696984     -22.79340081      -0.21273266       0.08620314       0.02113320
H      -22.77396163      -9.97896984     -21.77140081       0.06436973       0.13775077       0.08472735
H      -22.12296163     -10.08296984     -23.41640081       0.46007946       0.12838107      -0.09540760
H      -21.78879163     -11.39985984     -22.21854081       0.13187423       0.06825543      -0.20346705
23
Lattice="30.0 0.0 0.0 0.0 30.0 0.0 0.0 0.0 30.0" Properties=species:S:1:pos:R:3:forces:R:3 energy=-13960.96607249 label=CC chargeA=1 energyA=-7738.76386157005 chargeB=-1 energyB=-6220.47808514827 distance=5.938169769300996 pbc="T T T"
C      -23.00700000     -14.39400000     -25.47600000      -0.71626918      -0.62875277       0.74237584
C      -23.86700000     -15.59000000     -25.01000000       0.52146335       0.54145183       2.37445557
C      -22.00600000     -15.99600000     -27.05600000       0.00393734       1.11123760       0.32053830
N      -22.00900000     -14.81000000     -26.46800000      -0.49389956      -0.15183579       0.05331357
N      -22.97400000     -16.87300000     -26.85700000      -0.58367599      -1.76230288      -1.24239030
N      -21.03500000     -16.32600000     -27.87900000       1.82846171      -0.44531577      -1.21831345
H      -23.65000000     -13.61700000     -25.89000000       0.03729579       0.33371354       0.09958739
H      -22.47300000     -13.98600000     -24.61600000      -0.07541075       0.46959704       0.14304573
H      -23.24100000     -16.45200000     -24.76000000      -0.01656850      -0.38322802      -1.08039145
H      -24.75600000     -15.73900000     -25.63000000      -0.09568127      -0.31448025       0.29896098
H      -21.30800000     -14.13600000     -26.74300000       0.10666562       0.19232739      -0.00310737
H      -23.91000000     -16.51500000     -26.79400000      -0.24997072      -0.23959417       0.15674722
H      -22.88300000     -17.78900000     -27.27300000       0.01486768      -0.08399832      -0.26191257
H      -20.27200000     -15.69400000     -28.06100000       0.31981202      -0.00432644       0.03592510
H      -20.98400000     -17.25100000     -28.27500000       0.02957950      -0.03933131      -0.18534281
H      -24.16288000     -15.59000000     -23.95054000      -0.77958345       1.71121348      -0.02134425
C      -22.53898081     -10.46498492     -22.43670041       0.66644017       0.46625930       0.69552265
C      -23.77198081     -11.12098492     -22.95370041      -1.21986379       0.20100662       0.28916554
O      -23.61098081     -12.12098492     -23.69470041       0.36676191      -1.43014162      -1.03444633
O      -24.87598081     -10.60598492     -22.64570041      -0.30788599       0.11486968       0.04462620
H      -22.79098081      -9.77798492     -21.62370041       0.06685115       0.14662875       0.09341913
H      -22.13998081      -9.88198492     -23.26870041       0.45616763       0.12659108      -0.09362564
H      -21.80581081     -11.19887492     -22.07084041       0.12050533       0.06841100      -0.20680905
23
Lattice="30.0 0.0 0.0 0.0 30.0 0.0 0.0 0.0 30.0" Properties=species:S:1:pos:R:3:forces:R:3 energy=-13960.8603277197 label=CC chargeA=1 energyA=-7738.76386157005 chargeB=-1 energyB=-6220.47808514827 distance=6.1858383159671995 pbc="T T T"
C      -23.00700000     -14.39400000     -25.47600000      -0.70547678      -0.58427283       0.76671805
C      -23.86700000     -15.59000000     -25.01000000       0.50693550       0.54781072       2.38910848
C      -22.00600000     -15.99600000     -27.05600000       0.02060908       0.97210181       0.32119482
N      -22.00900000     -14.81000000     -26.46800000      -0.48832579       0.00467286       0.11241690
N      -22.97400000     -16.87300000     -26.85700000      -0.59347735      -1.75953655      -1.21571875
N      -21.03500000     -16.32600000     -27.87900000       1.83002452      -0.42569276      -1.22144544
H      -23.65000000     -13.61700000     -25.89000000       0.01697074       0.32672377       0.06652661
H      -22.47300000     -13.98600000     -24.61600000      -0.04178485       0.42205364       0.14926218
H      -23.24100000     -16.45200000     -24.76000000      -0.01743056      -0.37181913      -1.08460068
H      -24.75600000     -15.73900000     -25.63000000      -0.08491410      -0.31186775       0.29600139
H      -21.30800000     -14.13600000     -26.74300000       0.10464933       0.19244052      -0.00945134
H      -23.91000000     -16.51500000     -26.79400000      -0.27822575      -0.24340234       0.12529564
H      -22.88300000     -17.78900000     -27.27300000       0.01291253      -0.08520727      -0.26480484
H      -20.27200000     -15.69400000     -28.06100000       0.32532711       0.00475613       0.02483899
H      -20.98400000     -17.25100000     -28.27500000       0.02564346      -0.03771626      -0.18724774
H      -24.16288000     -15.59000000     -23.95054000      -0.78078009       1.70101486      -0.01218748
C      -22.55600000     -10.26400000     -22.28900000       0.65505122       0.47353723       0.69573435
C      -23.78900000     -10.92000000     -22.80600000      -1.06277215       0.08294978       0.19952989
O      -23.62800000     -11.92000000     -23.54700000       0.30723446      -1.39073858      -1.01161090
O      -24.89300000     -10.40500000     -22.49800000      -0.38491795       0.13597450       0.06185559
H      -22.80800000      -9.57700000     -21.47600000       0.06827835       0.15314491       0.10013787
H      -22.15700000      -9.68100000     -23.12100000       0.45285394       0.12505242      -0.09226530
H      -21.82283000     -10.99789000     -21.92314000       0.11161512       0.06802031      -0.20928827
23
Lattice="30.0 0.0 0.0 0.0 30.0 0.0 0.0 0.0 30.0" Properties=species:S:1:pos:R:3:forces:R:3 energy=-13960.7507448301 label=CC chargeA=1 energyA=-7738.76386157005 chargeB=-1 energyB=-6220.47808514827 distance=6.433687211666039 pbc="T T T"
C      -23.00700000     -14.39400000     -25.47600000      -0.68476151      -0.57599922       0.76274801
C      -23.86700000     -15.59000000     -25.01000000       0.49548813       0.55399478       2.40090980
C      -22.00600000     -15.99600000     -27.05600000       0.03752905       0.85183262       0.32181887
N      -22.00900000     -14.81000000     -26.46800000      -0.48521588       0.13398972       0.16123563
N      -22.97400000     -16.87300000     -26.85700000      -0.60253400      -1.75854863      -1.19052420
N      -21.03500000     -16.32600000     -27.87900000       1.83456967      -0.41031061      -1.22799791
H      -23.65000000     -13.61700000     -25.89000000       0.00228684       0.31623853       0.03643256
H      -22.47300000     -13.98600000     -24.61600000      -0.01218289       0.37379521       0.14584601
H      -23.24100000     -16.45200000     -24.76000000      -0.01777484      -0.36280174      -1.08865745
H      -24.75600000     -15.73900000     -25.63000000      -0.07682597      -0.31032845       0.29286134
H      -21.30800000     -14.13600000     -26.74300000       0.10226063       0.19134244      -0.01534518
H      -23.91000000     -16.51500000     -26.79400000      -0.30474037      -0.24637973       0.09631972
H      -22.88300000     -17.78900000     -27.27300000       0.01111682      -0.08590484      -0.26726353
H      -20.27200000     -15.69400000     -28.06100000       0.32974542       0.01252088       0.01483242
H      -20.98400000     -17.25100000     -28.27500000       0.02262799      -0.03694988      -0.18907464
H      -24.16288000     -15.59000000     -23.95054000      -0.78186517       1.69074235      -0.00420570
C      -22.57301919     -10.06301508     -22.14129959       0.64497964       0.47721485       0.69335910
C      -23.80601919     -10.71901508     -22.65829959      -0.93707216       0.00010578       0.13817158
O      -23.64501919     -11.71901508     -23.39929959       0.24524802      -1.31252213      -0.95695555
O      -24.91001919     -10.20401508     -22.35029959      -0.44663559       0.14899386       0.07242799
H      -22.82501919      -9.37601508     -21.32829959       0.06851378       0.15778750       0.10536343
H      -22.17401919      -9.48001508     -22.97329959       0.45024377       0.12384684      -0.09123206
H      -21.83984919     -10.79690508     -21.77543959       0.10499860       0.06733986      -0.21107026
23
Lattice="30.0 0.0 0.0 0.0 30.0 0.0 0.0 0.0 30.0" Properties=species:S:1:pos:R:3:forces:R:3 energy=-13960.6493933514 label=CC chargeA=1 energyA=-7738.76386157005 chargeB=-1 energyB=-6220.47808514827 distance=6.681696379133143 pbc="T T T"
C      -23.00700000     -14.39400000     -25.47600000      -0.66195394      -0.58328058       0.74742585
C      -23.86700000     -15.59000000     -25.01000000       0.48640282       0.55997206       2.41067572
C      -22.00600000     -15.99600000     -27.05600000       0.05305687       0.74839629       0.32225233
N      -22.00900000     -14.81000000     -26.46800000      -0.48364856       0.24241464       0.20269700
N      -22.97400000     -16.87300000     -26.85700000      -0.61033992      -1.75857087      -1.16740477
N      -21.03500000     -16.32600000     -27.87900000       1.84059345      -0.39801217      -1.23603199
H      -23.65000000     -13.61700000     -25.89000000      -0.00921016       0.30621217       0.01130738
H      -22.47300000     -13.98600000     -24.61600000       0.01163295       0.33201812       0.14013720
H      -23.24100000     -16.45200000     -24.76000000      -0.01784286      -0.35569530      -1.09244773
H      -24.75600000     -15.73900000     -25.63000000      -0.07067116      -0.30952773       0.28969258
H      -21.30800000     -14.13600000     -26.74300000       0.09981870       0.18971171      -0.02069580
H      -23.91000000     -16.51500000     -26.79400000      -0.32916115      -0.24869515       0.07029520
H      -22.88300000     -17.78900000     -27.27300000       0.00946701      -0.08631773      -0.26930136
H      -20.27200000     -15.69400000     -28.06100000       0.33331702       0.01902783       0.00595183
H      -20.98400000     -17.25100000     -28.27500000       0.02038113      -0.03658373      -0.19064609
H      -24.16288000     -15.59000000     -23.95054000      -0.78278831       1.68110543       0.00266012
C      -22.59003837      -9.86203016     -21.99359919       0.63656811       0.47819749       0.68947325
C      -23.82303837     -10.51803016     -22.51059919      -0.83607798      -0.05719009       0.09676844
O      -23.66203837     -11.51803016     -23.25159919       0.18986082      -1.22938460      -0.89722547
O      -24.92703837     -10.00303016     -22.20259919      -0.49557835       0.15572437       0.07793578
H      -22.84203837      -9.17503016     -21.18059919       0.06784851       0.16096417       0.10933931
H      -22.19103837      -9.27903016     -22.82559919       0.44822726       0.12284057      -0.09041154
H      -21.85686837     -10.59592016     -21.62773919       0.10009773       0.06667311      -0.21244724
23
Lattice="30.0 0.0 0.0 0.0 30.0 0.0 0.0 0.0 30.0" Properties=species:S:1:pos:R:3:forces:R:3 energy=-13960.5595813796 label=CC chargeA=1 energyA=-7738.76386157005 chargeB=-1 energyB=-6220.47808514827 distance=6.929848617797843 pbc="T T T"
C      -23.00700000     -14.39400000     -25.47600000      -0.64008304      -0.59620009       0.72920693
C      -23.86700000     -15.59000000     -25.01000000       0.47932023       0.56581458       2.41903695
C      -22.00600000     -15.99600000     -27.05600000       0.06668602       0.65841712       0.32269886
N      -22.00900000     -14.81000000     -26.46800000      -0.48235712       0.33513921       0.23830875
N      -22.97400000     -16.87300000     -26.85700000      -0.61660321      -1.75910056      -1.14626097
N      -21.03500000     -16.32600000     -27.87900000       1.84742471      -0.38787908      -1.24481239
H      -23.65000000     -13.61700000     -25.89000000      -0.01864106       0.29776901      -0.00906174
H      -22.47300000     -13.98600000     -24.61600000       0.02998949       0.29732975       0.13412940
H      -23.24100000     -16.45200000     -24.76000000      -0.01776794      -0.35001365      -1.09589830
H      -24.75600000     -15.73900000     -25.63000000      -0.06596081      -0.30931833       0.28642907
H      -21.30800000     -14.13600000     -26.74300000       0.09732741       0.18757829      -0.02535566
H      -23.91000000     -16.51500000     -26.79400000      -0.35184487      -0.25049123       0.04696045
H      -22.88300000     -17.78900000     -27.27300000       0.00794878      -0.08650499      -0.27095000
H      -20.27200000     -15.69400000     -28.06100000       0.33618957       0.02449654      -0.00196501
H      -20.98400000     -17.25100000     -28.27500000       0.01860219      -0.03637924      -0.19202150
H      -24.16288000     -15.59000000     -23.95054000      -0.78355704       1.67240161       0.00850732
C      -22.60705756      -9.66104525     -21.84589878       0.62949184       0.47750625       0.68479653
C      -23.84005756     -10.31704525     -22.36289878      -0.75317229      -0.09732489       0.06855334
O      -23.67905756     -11.31704525     -23.10389878       0.14236631      -1.15285980      -0.84167504
O      -24.94405756      -9.80204525     -22.05489878      -0.53502529       0.15838894       0.08023232
H      -22.85905756      -8.97404525     -21.03289878       0.06663558       0.16316133       0.11241672
H      -22.20805756      -9.07804525     -22.67789878       0.44665845       0.12197991      -0.08975935
H      -21.87388756     -10.39493525     -21.48003878       0.09637208       0.06608934      -0.21351668
23
Lattice="30.0 0.0 0.0 0.0 30.0 0.0 0.0 0.0 30.0" Properties=species:S:1:pos:R:3:forces:R:3 energy=-13960.481386365 label=CC chargeA=1 energyA=-7738.76386157005 chargeB=-1 energyB=-6220.47808514827 distance=7.17812909420908 pbc="T T T"
C      -23.00700000     -14.39400000     -25.47600000      -0.62017865      -0.61009750       0.71230305
C      -23.86700000     -15.59000000     -25.01000000       0.47399619       0.57157018       2.42629536
C      -22.00600000     -15.99600000     -27.05600000       0.07823437       0.57906109       0.32309125
N      -22.00900000     -14.81000000     -26.46800000      -0.48028528       0.41602952       0.26923682
N      -22.97400000     -16.87300000     -26.85700000      -0.62115639      -1.75981053      -1.12676156
N      -21.03500000     -16.32600000     -27.87900000       1.85464139      -0.37919095      -1.25387685
H      -23.65000000     -13.61700000     -25.89000000      -0.02673980       0.29105364      -0.02547279
H      -22.47300000     -13.98600000     -24.61600000       0.04356398       0.26868861       0.12800013
H      -23.24100000     -16.45200000     -24.76000000      -0.01761369      -0.34546262      -1.09905935
H      -24.75600000     -15.73900000     -25.63000000      -0.06237400      -0.30959899       0.28305932
H      -21.30800000     -14.13600000     -26.74300000       0.09474106       0.18486830      -0.02925328
H      -23.91000000     -16.51500000     -26.79400000      -0.37321448      -0.25191997       0.02595313
H      -22.88300000     -17.78900000     -27.27300000       0.00654285      -0.08654616      -0.27225052
H      -20.27200000     -15.69400000     -28.06100000       0.33852216       0.02913080      -0.00909490
H      -20.98400000     -17.25100000     -28.27500000       0.01706885      -0.03630397      -0.19335016
H      -24.16288000     -15.59000000     -23.95054000      -0.78425421       1.66472578       0.01353677
C      -22.62407675      -9.46006033     -21.69819838       0.62353674       0.47574605       0.67979094
C      -23.85707675     -10.11606033     -22.21519837      -0.68421115      -0.12574346       0.04908345
O      -23.69607675     -11.11606033     -22.95619837       0.10254849      -1.08616333      -0.79300852
O      -24.96107675      -9.60106033     -21.90719838      -0.56734209       0.15844511       0.08051510
H      -22.87607675      -8.77306033     -20.88519838       0.06509633       0.16465624       0.11480690
H      -22.22507675      -8.87706033     -22.53019838       0.44539130       0.12122287      -0.08921919
H      -21.89090675     -10.19395033     -21.33233837       0.09348603       0.06563930      -0.21432509
23
Lattice="30.0 0.0 0.0 0.0 30.0 0.0 0.0 0.0 30.0" Properties=species:S:1:pos:R:3:forces:R:3 energy=-13960.4138280991 label=CC chargeA=1 energyA=-7738.76386157005 chargeB=-1 energyB=-6220.47808514827 distance=7.426524940834331 pbc="T T T"
C      -23.00700000     -14.39400000     -25.47600000      -0.60222955      -0.62327841       0.69662702
C      -23.86700000     -15.59000000     -25.01000000       0.46981137       0.57696393       2.43272206
C      -22.00600000     -15.99600000     -27.05600000       0.08825387       0.50999638       0.32350356
N      -22.00900000     -14.81000000     -26.46800000      -0.47873745       0.48591354       0.29656668
N      -22.97400000     -16.87300000     -26.85700000      -0.62490013      -1.76071942      -1.10914518
N      -21.03500000     -16.32600000     -27.87900000       1.86185284      -0.37204672      -1.26264824
H      -23.65000000     -13.61700000     -25.89000000      -0.03379493       0.28589148      -0.03846988
H      -22.47300000     -13.98600000     -24.61600000       0.05380654       0.24584240       0.12287815
H      -23.24100000     -16.45200000     -24.76000000      -0.01748063      -0.34180168      -1.10196073
H      -24.75600000     -15.73900000     -25.63000000      -0.05949445      -0.31010511       0.27988215
H      -21.30800000     -14.13600000     -26.74300000       0.09233792       0.18226022      -0.03278756
H      -23.91000000     -16.51500000     -26.79400000      -0.39262716      -0.25301586       0.00723835
H      -22.88300000     -17.78900000     -27.27300000       0.00525947      -0.08653037      -0.27338994
H      -20.27200000     -15.69400000     -28.06100000       0.34046252       0.03311969      -0.01544643
H      -20.98400000     -17.25100000     -28.27500000       0.01582744      -0.03623806      -0.19451013
H      -24.16288000     -15.59000000     -23.95054000      -0.78480075       1.65803809       0.01791924
C      -22.64109593      -9.25907541     -21.55049797       0.61865057       0.47309260       0.67466794
C      -23.87409593      -9.91507541     -22.06749797      -0.62707783      -0.14472566       0.03663413
O      -23.71309593     -10.91507541     -22.80849797       0.06937417      -1.03056292      -0.75229081
O      -24.97809593      -9.40007541     -21.75949797      -0.59353357       0.15648274       0.07909394
H      -22.89309593      -8.57207541     -20.73749797       0.06337223       0.16555420       0.11664152
H      -22.24209593      -8.67607541     -22.38249797       0.44440124       0.12051808      -0.08875259
H      -21.90792593      -9.99296541     -21.18463797       0.09126629       0.06535088      -0.21497325
23
Lattice="30.0 0.0 0.0 0.0 30.0 0.0 0.0 0.0 30.0" Properties=species:S:1:pos:R:3:forces:R:3 energy=-13960.3555221732 label=CC chargeA=1 energyA=-7738.76386157005 chargeB=-1 energyB=-6220.47808514827 distance=7.675024962343216 pbc="T T T"
C      -23.00700000     -14.39400000     -25.47600000      -0.58598204      -0.63537898       0.68129553
C      -23.86700000     -15.59000000     -25.01000000       0.46623023       0.58163875       2.43816496
C      -22.00600000     -15.99600000     -27.05600000       0.09755859       0.45064052       0.32445514
N      -22.00900000     -14.81000000     -26.46800000      -0.47897342       0.54555830       0.32110623
N      -22.97400000     -16.87300000     -26.85700000      -0.62869232      -1.76184832      -1.09366922
N      -21.03500000     -16.32600000     -27.87900000       1.86875150      -0.36653748      -1.27090824
H      -23.65000000     -13.61700000     -25.89000000      -0.03986340       0.28191972      -0.04859707
H      -22.47300000     -13.98600000     -24.61600000       0.06198432       0.22825553       0.11952419
H      -23.24100000     -16.45200000     -24.76000000      -0.01742389      -0.33887194      -1.10465863
H      -24.75600000     -15.73900000     -25.63000000      -0.05703351      -0.31062899       0.27713125
H      -21.30800000     -14.13600000     -26.74300000       0.09034559       0.18029627      -0.03637560
H      -23.91000000     -16.51500000     -26.79400000      -0.40965322      -0.25377779      -0.00928174
H      -22.88300000     -17.78900000     -27.27300000       0.00412883      -0.08646444      -0.27446931
H      -20.27200000     -15.69400000     -28.06100000       0.34208903       0.03667262      -0.02101609
H      -20.98400000     -17.25100000     -28.27500000       0.01490253      -0.03603347      -0.19533711
H      -24.16288000     -15.59000000     -23.95054000      -0.78517651       1.65227676       0.02186449
C      -22.65811512      -9.05809049     -21.40279756       0.61463604       0.46999669       0.66962347
C      -23.89111512      -9.71409049     -21.91979756      -0.57867033      -0.15631088       0.02986932
O      -23.73011512     -10.71409049     -22.66079756       0.04105244      -0.98548362      -0.71918575
O      -24.99511512      -9.19909049     -21.61179756      -0.61481587       0.15295411       0.07627671
H      -22.91011512      -8.37109049     -20.58979756       0.06150334       0.16607312       0.11807822
H      -22.25911512      -8.47509049     -22.23479756       0.44359667       0.11987176      -0.08837101
H      -21.92494512      -9.79198049     -21.03693756       0.08950541       0.06518177      -0.21551974
23
Lattice="30.0 0.0 0.0 0.0 30.0 0.0 0.0 0.0 30.0" Properties=species:S:1:pos:R:3:forces:R:3 energy=-13960.3049514433 label=CC chargeA=1 energyA=-7738.76386157005 chargeB=-1 energyB=-6220.47808514827 distance=7.923619347117433 pbc="T T T"
C      -23.00700000     -14.39400000     -25.47600000      -0.57138678      -0.64639787       0.66621438
C      -23.86700000     -15.59000000     -25.01000000       0.46307460       0.58567496       2.44289863
C      -22.00600000     -15.99600000     -27.05600000       0.10647737       0.40001414       0.32584042
N      -22.00900000     -14.81000000     -26.46800000      -0.48105578       0.59579812       0.34296525
N      -22.97400000     -16.87300000     -26.85700000      -0.63248693      -1.76288834      -1.08027952
N      -21.03500000     -16.32600000     -27.87900000       1.87477776      -0.36233754      -1.27807537
H      -23.65000000     -13.61700000     -25.89000000      -0.04506127       0.27891177      -0.05644408
H      -22.47300000     -13.98600000     -24.61600000       0.06882184       0.21494426       0.11789997
H      -23.24100000     -16.45200000     -24.76000000      -0.01745173      -0.33652491      -1.10715766
H      -24.75600000     -15.73900000     -25.63000000      -0.05488625      -0.31110280       0.27482686
H      -21.30800000     -14.13600000     -26.74300000       0.08893635       0.17918301      -0.04005838
H      -23.91000000     -16.51500000     -26.79400000      -0.42438994      -0.25420285      -0.02367633
H      -22.88300000     -17.78900000     -27.27300000       0.00315301      -0.08648275      -0.27561592
H      -20.27200000     -15.69400000     -28.06100000       0.34360080       0.03998675      -0.02588091
H      -20.98400000     -17.25100000     -28.27500000       0.01420917      -0.03582350      -0.19596792
H      -24.16288000     -15.59000000     -23.95054000      -0.78538152       1.64736049       0.02548846
C      -22.67513431      -8.85710557     -21.25509716       0.61130087       0.46672057       0.66491409
C      -23.90813431      -9.51310557     -21.77209716      -0.53739031      -0.16288203       0.02684169
O      -23.74713431     -10.51310557     -22.51309716       0.01655816      -0.94912746      -0.69244703
O      -25.01213431      -8.99810557     -21.46409716      -0.63205298       0.14846400       0.07256879
H      -22.92713431      -8.17010557     -20.44209716       0.05966563       0.16633241       0.11920264
H      -22.27613431      -8.27410557     -22.08709716       0.44292695       0.11925481      -0.08803883
H      -21.94196431      -9.59099557     -20.88923716       0.08804098       0.06512478      -0.21601923
23
Lattice="30.0 0.0 0.0 0.0 30.0 0.0 0.0 0.0 30.0" Properties=species:S:1:pos:R:3:forces:R:3 energy=-13960.2606417846 label=CC chargeA=1 energyA=-7738.76386157005 chargeB=-1 energyB=-6220.47808514827 distance=8.172299487318071 pbc="T T T"
C      -23.00700000     -14.39400000     -25.47600000      -0.55843067      -0.65628138       0.65167889
C      -23.86700000     -15.59000000     -25.01000000       0.46030499       0.58909421       2.44698443
C      -22.00600000     -15.99600000     -27.05600000       0.11512831       0.35646699       0.32772534
N      -22.00900000     -14.81000000     -26.46800000      -0.48454006       0.63830213       0.36238061
N      -22.97400000     -16.87300000     -26.85700000      -0.63622293      -1.76378992      -1.06871782
N      -21.03500000     -16.32600000     -27.87900000       1.87994711      -0.35916174      -1.28427551
H      -23.65000000     -13.61700000     -25.89000000      -0.04952912       0.27662451      -0.06255188
H      -22.47300000     -13.98600000     -24.61600000       0.07471526       0.20504050       0.11777345
H      -23.24100000     -16.45200000     -24.76000000      -0.01753986      -0.33463643      -1.10947963
H      -24.75600000     -15.73900000     -25.63000000      -0.05297433      -0.31154512       0.27285380
H      -21.30800000     -14.13600000     -26.74300000       0.08803113       0.17874660      -0.04381618
H      -23.91000000     -16.51500000     -26.79400000      -0.43722125      -0.25435837      -0.03627358
H      -22.88300000     -17.78900000     -27.27300000       0.00232740      -0.08657439      -0.27681572
H      -20.27200000     -15.69400000     -28.06100000       0.34502789       0.04312722      -0.03015474
H      -20.98400000     -17.25100000     -28.27500000       0.01367386      -0.03560975      -0.19643988
H      -24.16288000     -15.59000000     -23.95054000      -0.78545573       1.64317687       0.02880207
C      -22.69215350      -8.65612066     -21.10739675       0.60842442       0.46342708       0.66053496
C      -23.92515350      -9.31212066     -21.62439675      -0.50128231      -0.16607654       0.02628681
O      -23.76415350     -10.31212066     -22.36539675      -0.00515640      -0.91956843      -0.67069845
O      -25.02915350      -8.79712066     -21.31639675      -0.64628308       0.14338771       0.06833935
H      -22.94415350      -7.96912066     -20.29439675       0.05793303       0.16643937       0.12011776
H      -22.29315350      -8.07312066     -21.93939675       0.44235020       0.11866386      -0.08775864
H      -21.95898350      -9.39001066     -20.74153675       0.08677214       0.06510503      -0.21649541
23
Lattice="30.0 0.0 0.0 0.0 30.0 0.0 0.0 0.0 30.0" Properties=species:S:1:pos:R:3:forces:R:3 energy=-13960.2213962842 label=CC chargeA=1 energyA=-7738.76386157005 chargeB=-1 energyB=-6220.47808514827 distance=8.421057793623207 pbc="T T T"
C      -23.00700000     -14.39400000     -25.47600000      -0.54693588      -0.66506306       0.63792631
C      -23.86700000     -15.59000000     -25.01000000       0.45785906       0.59203519       2.45053631
C      -22.00600000     -15.99600000     -27.05600000       0.12348087       0.31877257       0.32995114
N      -22.00900000     -14.81000000     -26.46800000      -0.48893428       0.67435420       0.37955969
N      -22.97400000     -16.87300000     -26.85700000      -0.63975809      -1.76448675      -1.05871776