
     Program PWSCF v.7.1 starts on  5Sep2022 at 14:44:16 

     This program is part of the open-source Quantum ESPRESSO suite
     for quantum simulation of materials; please cite
         "P. Giannozzi et al., J. Phys.:Condens. Matter 21 395502 (2009);
         "P. Giannozzi et al., J. Phys.:Condens. Matter 29 465901 (2017);
         "P. Giannozzi et al., J. Chem. Phys. 152 154105 (2020);
          URL http://www.quantum-espresso.org", 
     in publications or presentations arising from this work. More details at
     http://www.quantum-espresso.org/quote

     Parallel version (MPI), running on     1 processors

     MPI processes distributed on     1 nodes
     10012 MiB available memory on the printing compute node when the environment starts

     Waiting for input...
     Reading input from standard input
Warning: card &CELL ignored
Warning: card / ignored

     Current dimensions of program PWSCF are:
     Max number of different atomic species (ntypx) = 10
     Max number of k-points (npk) =  40000
     Max angular momentum in pseudopotentials (lmaxx) =  4

     gamma-point specific algorithms are used

     Subspace diagonalization in iterative solution of the eigenvalue problem:
     a serial algorithm will be used


     G-vector sticks info
     --------------------
     sticks:   dense  smooth     PW     G-vecs:    dense   smooth      PW
     Sum       11913   11913   2965               979259   979259  122321

     Using Slab Decomposition



     bravais-lattice index     =            1
     lattice parameter (alat)  =      24.9822  a.u.
     unit-cell volume          =   15591.6104 (a.u.)^3
     number of atoms/cell      =            2
     number of atomic types    =            1
     number of electrons       =         8.00
     number of Kohn-Sham states=            8
     kinetic-energy cutoff     =      60.0000  Ry
     charge density cutoff     =     240.0000  Ry
     scf convergence threshold =      1.0E-10
     mixing beta               =       0.5000
     number of iterations used =            8  plain     mixing
     energy convergence thresh.=      1.0E-04
     force convergence thresh. =      1.0E-03
     Exchange-correlation=  SLA  PW   PBX  PBC
                           (   1   4   3   4   0   0   0)
     nstep                     =           50


     celldm(1)=  24.982179  celldm(2)=   0.000000  celldm(3)=   0.000000
     celldm(4)=   0.000000  celldm(5)=   0.000000  celldm(6)=   0.000000

     crystal axes: (cart. coord. in units of alat)
               a(1) = (   1.000000   0.000000   0.000000 )  
               a(2) = (   0.000000   1.000000   0.000000 )  
               a(3) = (   0.000000   0.000000   1.000000 )  

     reciprocal axes: (cart. coord. in units 2 pi/alat)
               b(1) = (  1.000000  0.000000  0.000000 )  
               b(2) = (  0.000000  1.000000  0.000000 )  
               b(3) = (  0.000000  0.000000  1.000000 )  


     PseudoPot. # 1 for C  read from file:
     ../../pseudos/C.pbe-tm-new-gipaw-dc.UPF
     MD5 check sum: c9fa938d11269a3b0a4c160d8754c0f1
     Pseudo is Norm-conserving, Zval =  4.0
     Generated by new atomic code, or converted to UPF format
     Using radial grid of 1441 points,  1 beta functions with: 
                l(1) =   0

     atomic species   valence    mass     pseudopotential
        C              4.00    12.01100     C ( 1.00)

     No symmetry found



   Cartesian axes

     site n.     atom                  positions (alat units)
         1           C   tau(   1) = (   0.0000000   0.0000000   0.0000000  )
         2           C   tau(   2) = (   0.0378215   0.0000000   0.0000000  )

     -------------------------------------------------
     Parameters for Dispersion (Grimme-D2) Correction:
     -------------------------------------------------
       atom      VdW radius       C_6     

        C          2.744         60.710

     number of k points=     1  Marzari-Vanderbilt smearing, width (Ry)=  0.0200
                       cart. coord. in units 2pi/alat
        k(    1) = (   0.0000000   0.0000000   0.0000000), wk =   2.0000000

     Dense  grid:   489630 G-vectors     FFT dimensions: ( 125, 125, 125)

     Estimated max dynamical RAM per process >     376.93 MB

     Initial potential from superposition of free atoms

     starting charge       7.9999, renormalised to       8.0000

     negative rho (up, down):  8.275E-05 0.000E+00
     Starting wfcs are   16 randomized atomic wfcs

     total cpu time spent up to now is        2.4 secs

     Self-consistent Calculation

     iteration #  1     ecut=    60.00 Ry     beta= 0.50
     Davidson diagonalization with overlap
     ethr =  1.00E-02,  avg # of iterations =  3.0

     negative rho (up, down):  3.008E-05 0.000E+00

     total cpu time spent up to now is        4.0 secs

     total energy              =     -13.06997573 Ry
     estimated scf accuracy    <       3.63455653 Ry

     iteration #  2     ecut=    60.00 Ry     beta= 0.50
     Davidson diagonalization with overlap
     ethr =  1.00E-02,  avg # of iterations =  2.0

     negative rho (up, down):  1.201E-05 0.000E+00

     total cpu time spent up to now is        5.4 secs

     total energy              =     -13.70433729 Ry
     estimated scf accuracy    <       0.02824475 Ry

     iteration #  3     ecut=    60.00 Ry     beta= 0.50
     Davidson diagonalization with overlap
     ethr =  3.53E-04,  avg # of iterations =  8.0

     negative rho (up, down):  4.922E-07 0.000E+00

     total cpu time spent up to now is        7.4 secs

     total energy              =     -13.71171837 Ry
     estimated scf accuracy    <       0.00504265 Ry

     iteration #  4     ecut=    60.00 Ry     beta= 0.50
     Davidson diagonalization with overlap
     ethr =  6.30E-05,  avg # of iterations =  5.0

     negative rho (up, down):  1.048E-07 0.000E+00

     total cpu time spent up to now is        9.0 secs

     total energy              =     -13.71203306 Ry
     estimated scf accuracy    <       0.00021563 Ry

     iteration #  5     ecut=    60.00 Ry     beta= 0.50
     Davidson diagonalization with overlap
     ethr =  2.70E-06,  avg # of iterations =  7.0

     total cpu time spent up to now is       10.9 secs

     total energy              =     -13.71207924 Ry
     estimated scf accuracy    <       0.00000519 Ry

     iteration #  6     ecut=    60.00 Ry     beta= 0.50
     Davidson diagonalization with overlap
     ethr =  6.49E-08,  avg # of iterations =  2.0

     total cpu time spent up to now is       12.2 secs

     total energy              =     -13.71207978 Ry
     estimated scf accuracy    <       0.00000025 Ry

     iteration #  7     ecut=    60.00 Ry     beta= 0.50
     Davidson diagonalization with overlap
     ethr =  3.07E-09,  avg # of iterations =  2.0

     total cpu time spent up to now is       13.6 secs

     total energy              =     -13.71207985 Ry
     estimated scf accuracy    <       0.00000005 Ry

     iteration #  8     ecut=    60.00 Ry     beta= 0.50
     Davidson diagonalization with overlap
     ethr =  5.88E-10,  avg # of iterations =  2.0

     total cpu time spent up to now is       14.9 secs

     total energy              =     -13.71207985 Ry
     estimated scf accuracy    <          4.9E-09 Ry

     iteration #  9     ecut=    60.00 Ry     beta= 0.50
     Davidson diagonalization with overlap
     ethr =  6.07E-11,  avg # of iterations =  2.0

     total cpu time spent up to now is       16.2 secs

     total energy              =     -13.71207985 Ry
     estimated scf accuracy    <          1.2E-10 Ry

     iteration # 10     ecut=    60.00 Ry     beta= 0.50
     Davidson diagonalization with overlap
     ethr =  1.48E-12,  avg # of iterations =  2.0

     total cpu time spent up to now is       17.4 secs

     End of self-consistent calculation

          k = 0.0000 0.0000 0.0000 ( 61161 PWs)   bands (ev):

   -20.6358 -20.6358 -16.5529  -6.0265  -0.7864   0.1325   0.5375   0.5375

     the Fermi energy is    -3.3952 ev

!    total energy              =     -13.71207985 Ry
     estimated scf accuracy    <          9.8E-11 Ry
     smearing contrib. (-TS)   =       0.00000000 Ry
     internal energy E=F+TS    =     -13.71207985 Ry

     The total energy is F=E-TS. E is the sum of the following terms:
     one-electron contribution =     -65.56481264 Ry
     hartree contribution      =      33.31569951 Ry
     xc contribution           =      -8.06548384 Ry
     ewald contribution        =      26.60252441 Ry
     Dispersion Correction     =      -0.00000728 Ry

     convergence has been achieved in  10 iterations

     Forces acting on atoms (cartesian axes, Ry/au):

     atom    1 type  1   force =   -21.75347784    0.00000000    0.00000000
     atom    2 type  1   force =    21.75347784   -0.00000000   -0.00000000

     Total force =    21.753478     Total SCF correction =     0.000007

     BFGS Geometry Optimization
     Energy error            =      0.0E+00 Ry
     Gradient error          =      2.2E+01 Ry/Bohr

     number of scf cycles    =   1
     number of bfgs steps    =   0

     energy             new  =     -13.7120798520 Ry

     new trust radius        =       0.5000000000 bohr
     new conv_thr            =            1.0E-10 Ry


ATOMIC_POSITIONS (angstrom)
C             0.0000000000        0.0000000000        0.0000000000    0   0   0
C             0.7645886055        0.0000000000        0.0000000000    1   0   0



     Writing config-only to output data dir ./pwscf.save/
     NEW-OLD atomic charge density approx. for the potential

     negative rho (up, down):  3.042E-04 0.000E+00

     total cpu time spent up to now is       18.3 secs

     Self-consistent Calculation

     iteration #  1     ecut=    60.00 Ry     beta= 0.50
     Davidson diagonalization with overlap
     ethr =  1.00E-06,  avg # of iterations = 14.0

     negative rho (up, down):  3.361E-05 0.000E+00

     total cpu time spent up to now is       22.2 secs

     total energy              =     -19.59576554 Ry
     estimated scf accuracy    <       1.44906003 Ry

     iteration #  2     ecut=    60.00 Ry     beta= 0.50
     Davidson diagonalization with overlap
     ethr =  1.00E-02,  avg # of iterations =  2.0

     negative rho (up, down):  2.553E-05 0.000E+00

     total cpu time spent up to now is       23.5 secs

     total energy              =     -20.23790463 Ry
     estimated scf accuracy    <       2.48565487 Ry

     iteration #  3     ecut=    60.00 Ry     beta= 0.50
     Davidson diagonalization with overlap
     ethr =  1.00E-02,  avg # of iterations =  1.0

     negative rho (up, down):  7.949E-06 0.000E+00

     total cpu time spent up to now is       24.7 secs

     WARNING: integrated charge=     8.00017691, expected=     8.00000000

     total energy              =     -19.95829805 Ry
     estimated scf accuracy    <       1.00052568 Ry

     iteration #  4     ecut=    60.00 Ry     beta= 0.50
     Davidson diagonalization with overlap
     ethr =  1.00E-02,  avg # of iterations =  2.0

     negative rho (up, down):  1.965E-07 0.000E+00

     total cpu time spent up to now is       26.0 secs

     WARNING: integrated charge=     8.00016207, expected=     8.00000000

     total energy              =     -20.24266535 Ry
     estimated scf accuracy    <       1.25981048 Ry

     iteration #  5     ecut=    60.00 Ry     beta= 0.50
     Davidson diagonalization with overlap
     ethr =  1.00E-02,  avg # of iterations =  1.0
     Minimization algorithm failed to find Fermi energy: reverting to bisection
     Possible cause: smearing is larger than the electronic band-gap.

     total cpu time spent up to now is       27.2 secs

     WARNING: integrated charge=     8.00017604, expected=     8.00000000

     total energy              =     -20.21120170 Ry
     estimated scf accuracy    <       0.87368701 Ry

     iteration #  6     ecut=    60.00 Ry     beta= 0.50
     Davidson diagonalization with overlap
     ethr =  1.00E-02,  avg # of iterations =  1.0

     total cpu time spent up to now is       28.5 secs

     WARNING: integrated charge=     8.00015409, expected=     8.00000000

     total energy              =     -20.16210995 Ry
     estimated scf accuracy    <       0.71878473 Ry

     iteration #  7     ecut=    60.00 Ry     beta= 0.50
     Davidson diagonalization with overlap
     ethr =  8.98E-03,  avg # of iterations =  1.0

     total cpu time spent up to now is       29.7 secs

     WARNING: integrated charge=     8.00009725, expected=     8.00000000

     total energy              =     -20.18437437 Ry
     estimated scf accuracy    <       0.02662016 Ry

     iteration #  8     ecut=    60.00 Ry     beta= 0.50
     Davidson diagonalization with overlap
     ethr =  3.33E-04,  avg # of iterations =  1.0

     total cpu time spent up to now is       31.0 secs

     WARNING: integrated charge=     8.00005922, expected=     8.00000000

     total energy              =     -20.18105477 Ry
     estimated scf accuracy    <       0.01095913 Ry

     iteration #  9     ecut=    60.00 Ry     beta= 0.50
     Davidson diagonalization with overlap
     ethr =  1.37E-04,  avg # of iterations =  1.0

     total cpu time spent up to now is       32.3 secs

     WARNING: integrated charge=     8.00003148, expected=     8.00000000

     total energy              =     -20.22646681 Ry
     estimated scf accuracy    <       0.55673178 Ry

     iteration # 10     ecut=    60.00 Ry     beta= 0.50
     Davidson diagonalization with overlap
     ethr =  1.37E-04,  avg # of iterations =  1.0
     Minimization algorithm failed to find Fermi energy: reverting to bisection
     Possible cause: smearing is larger than the electronic band-gap.

     total cpu time spent up to now is       33.6 secs

     WARNING: integrated charge=     8.00004074, expected=     8.00000000

     total energy              =     -20.16293859 Ry
     estimated scf accuracy    <       0.77391876 Ry

     iteration # 11     ecut=    60.00 Ry     beta= 0.50
     Davidson diagonalization with overlap
     ethr =  1.37E-04,  avg # of iterations =  2.0

     total cpu time spent up to now is       35.0 secs

     WARNING: integrated charge=     8.00001090, expected=     8.00000000

     total energy              =     -20.18391396 Ry
     estimated scf accuracy    <       0.01269374 Ry

     iteration # 12     ecut=    60.00 Ry     beta= 0.50
     Davidson diagonalization with overlap
     ethr =  1.37E-04,  avg # of iterations =  1.0

     total cpu time spent up to now is       36.3 secs

     WARNING: integrated charge=     8.00000424, expected=     8.00000000

     total energy              =     -20.18532157 Ry
     estimated scf accuracy    <       0.01939459 Ry

     iteration # 13     ecut=    60.00 Ry     beta= 0.50
     Davidson diagonalization with overlap
     ethr =  1.37E-04,  avg # of iterations =  1.0

     total cpu time spent up to now is       37.5 secs

     WARNING: integrated charge=     8.00000591, expected=     8.00000000

     total energy              =     -20.18587029 Ry
     estimated scf accuracy    <       0.02368520 Ry

     iteration # 14     ecut=    60.00 Ry     beta= 0.50
     Davidson diagonalization with overlap
     ethr =  1.37E-04,  avg # of iterations =  1.0

     total cpu time spent up to now is       38.7 secs

     WARNING: integrated charge=     8.00000294, expected=     8.00000000

     total energy              =     -20.18192527 Ry
     estimated scf accuracy    <       0.05487081 Ry

     iteration # 15     ecut=    60.00 Ry     beta= 0.50
     Davidson diagonalization with overlap
     ethr =  1.37E-04,  avg # of iterations =  1.0

     total cpu time spent up to now is       39.9 secs

     WARNING: integrated charge=     8.00000205, expected=     8.00000000

     total energy              =     -20.18619275 Ry
     estimated scf accuracy    <       0.03687384 Ry

     iteration # 16     ecut=    60.00 Ry     beta= 0.50
     Davidson diagonalization with overlap
     ethr =  1.37E-04,  avg # of iterations =  1.0

     total cpu time spent up to now is       41.1 secs

     WARNING: integrated charge=     8.00000163, expected=     8.00000000

     total energy              =     -20.18658954 Ry
     estimated scf accuracy    <       0.06809340 Ry

     iteration # 17     ecut=    60.00 Ry     beta= 0.50
     Davidson diagonalization with overlap
     ethr =  1.37E-04,  avg # of iterations =  1.0

     total cpu time spent up to now is       42.3 secs

     WARNING: integrated charge=     8.00000294, expected=     8.00000000

     total energy              =     -20.18424497 Ry
     estimated scf accuracy    <       0.08187865 Ry

     iteration # 18     ecut=    60.00 Ry     beta= 0.50
     Davidson diagonalization with overlap
     ethr =  1.37E-04,  avg # of iterations =  1.0

     total cpu time spent up to now is       43.6 secs

     WARNING: integrated charge=     8.00000184, expected=     8.00000000

     total energy              =     -20.18442761 Ry
     estimated scf accuracy    <       0.00864485 Ry

     iteration # 19     ecut=    60.00 Ry     beta= 0.50
     Davidson diagonalization with overlap
     ethr =  1.08E-04,  avg # of iterations =  1.0

     total cpu time spent up to now is       44.9 secs

     total energy              =     -20.18475900 Ry
     estimated scf accuracy    <       0.00422227 Ry

     iteration # 20     ecut=    60.00 Ry     beta= 0.50
     Davidson diagonalization with overlap
     ethr =  5.28E-05,  avg # of iterations =  1.0

     total cpu time spent up to now is       46.2 secs

     total energy              =     -20.18484110 Ry
     estimated scf accuracy    <       0.00000478 Ry

     iteration # 21     ecut=    60.00 Ry     beta= 0.50
     Davidson diagonalization with overlap
     ethr =  5.98E-08,  avg # of iterations =  1.0

     total cpu time spent up to now is       47.9 secs

     total energy              =     -20.18484117 Ry
     estimated scf accuracy    <       0.00000142 Ry

     iteration # 22     ecut=    60.00 Ry     beta= 0.50
     Davidson diagonalization with overlap
     ethr =  1.77E-08,  avg # of iterations =  1.0

     total cpu time spent up to now is       49.3 secs

     total energy              =     -20.18484103 Ry
     estimated scf accuracy    <       0.00000121 Ry

     iteration # 23     ecut=    60.00 Ry     beta= 0.50
     Davidson diagonalization with overlap
     ethr =  1.52E-08,  avg # of iterations =  1.0

     total cpu time spent up to now is       50.5 secs

     total energy              =     -20.18484116 Ry
     estimated scf accuracy    <       0.00000323 Ry

     iteration # 24     ecut=    60.00 Ry     beta= 0.50
     Davidson diagonalization with overlap
     ethr =  1.52E-08,  avg # of iterations =  1.0

     total cpu time spent up to now is       51.7 secs

     total energy              =     -20.18484073 Ry
     estimated scf accuracy    <       0.00000467 Ry

     iteration # 25     ecut=    60.00 Ry     beta= 0.50
     Davidson diagonalization with overlap
     ethr =  1.52E-08,  avg # of iterations =  1.0

     total cpu time spent up to now is       52.9 secs

     WARNING: integrated charge=     7.99999887, expected=     8.00000000

     total energy              =     -20.18484128 Ry
     estimated scf accuracy    <       0.00000052 Ry

     iteration # 26     ecut=    60.00 Ry     beta= 0.50
     Davidson diagonalization with overlap
     ethr =  6.50E-09,  avg # of iterations =  2.0

     total cpu time spent up to now is       54.4 secs

     WARNING: integrated charge=     7.99999902, expected=     8.00000000

     total energy              =     -20.18484133 Ry
     estimated scf accuracy    <       0.00000742 Ry

     iteration # 27     ecut=    60.00 Ry     beta= 0.50
     Davidson diagonalization with overlap
     ethr =  6.50E-09,  avg # of iterations =  1.0

     total cpu time spent up to now is       55.6 secs

     WARNING: integrated charge=     7.99999901, expected=     8.00000000

     total energy              =     -20.18484076 Ry
     estimated scf accuracy    <       0.00000304 Ry

     iteration # 28     ecut=    60.00 Ry     beta= 0.50
     Davidson diagonalization with overlap
     ethr =  6.50E-09,  avg # of iterations =  2.0

     total cpu time spent up to now is       57.0 secs

     total energy              =     -20.18484091 Ry
     estimated scf accuracy    <          8.9E-09 Ry

     iteration # 29     ecut=    60.00 Ry     beta= 0.50
     Davidson diagonalization with overlap
     ethr =  1.11E-10,  avg # of iterations =  2.0

     total cpu time spent up to now is       58.4 secs

     total energy              =     -20.18484091 Ry
     estimated scf accuracy    <       0.00000001 Ry

     iteration # 30     ecut=    60.00 Ry     beta= 0.50
     Davidson diagonalization with overlap
     ethr =  1.11E-10,  avg # of iterations =  1.0

     total cpu time spent up to now is       59.7 secs

     total energy              =     -20.18484091 Ry
     estimated scf accuracy    <          6.2E-10 Ry

     iteration # 31     ecut=    60.00 Ry     beta= 0.50
     Davidson diagonalization with overlap
     ethr =  7.80E-12,  avg # of iterations =  2.0

     total cpu time spent up to now is       61.1 secs

     total energy              =     -20.18484091 Ry
     estimated scf accuracy    <          2.3E-10 Ry

     iteration # 32     ecut=    60.00 Ry     beta= 0.50
     Davidson diagonalization with overlap
     ethr =  2.85E-12,  avg # of iterations =  1.0

     total cpu time spent up to now is       62.3 secs

     End of self-consistent calculation

          k = 0.0000 0.0000 0.0000 ( 61161 PWs)   bands (ev):

   -18.4819 -10.6113 -10.6113  -7.4123  -7.2982  -0.1050   0.6440   0.6440

     the Fermi energy is    -7.3195 ev

!    total energy              =     -20.18484091 Ry
     estimated scf accuracy    <          1.1E-11 Ry
     smearing contrib. (-TS)   =      -0.01187288 Ry
     internal energy E=F+TS    =     -20.17296803 Ry

     The total energy is F=E-TS. E is the sum of the following terms:
     one-electron contribution =     -57.96536955 Ry
     hartree contribution      =      30.35392009 Ry
     xc contribution           =      -7.44929642 Ry
     ewald contribution        =      14.88778302 Ry
     Dispersion Correction     =      -0.00000516 Ry

     convergence has been achieved in  32 iterations

     Forces acting on atoms (cartesian axes, Ry/au):

     atom    1 type  1   force =    -6.49042943   -0.00000000   -0.00000000
     atom    2 type  1   force =     6.49042943    0.00000000    0.00000000

     Total force =     6.490429     Total SCF correction =     0.000005
     Energy error            =      6.5E+00 Ry
     Gradient error          =      6.5E+00 Ry/Bohr

     number of scf cycles    =   2
     number of bfgs steps    =   1

     energy             old  =     -13.7120798520 Ry
     energy             new  =     -20.1848409097 Ry

     CASE: energy            _new < energy            _old

     new trust radius        =       0.2126190411 bohr
     new conv_thr            =            1.0E-10 Ry


ATOMIC_POSITIONS (angstrom)
C             0.0000000000        0.0000000000        0.0000000000    0   0   0
C             0.8771017566        0.0000000000        0.0000000000    1   0   0



     Writing config-only to output data dir ./pwscf.save/
     NEW-OLD atomic charge density approx. for the potential

     negative rho (up, down):  8.033E-05 0.000E+00

     total cpu time spent up to now is       63.4 secs

     Self-consistent Calculation

     iteration #  1     ecut=    60.00 Ry     beta= 0.50
     Davidson diagonalization with overlap
     ethr =  1.00E-06,  avg # of iterations = 12.0

     negative rho (up, down):  3.729E-05 0.000E+00

     total cpu time spent up to now is       67.4 secs

     WARNING: integrated charge=     8.00107129, expected=     8.00000000

     total energy              =     -20.95656071 Ry
     estimated scf accuracy    <       0.66585126 Ry

     iteration #  2     ecut=    60.00 Ry     beta= 0.50
     Davidson diagonalization with overlap
     ethr =  8.32E-03,  avg # of iterations =  2.0

     negative rho (up, down):  2.955E-05 0.000E+00

     total cpu time spent up to now is       68.8 secs

     WARNING: integrated charge=     8.00087519, expected=     8.00000000

     total energy              =     -21.17026144 Ry
     estimated scf accuracy    <       1.81156174 Ry

     iteration #  3     ecut=    60.00 Ry     beta= 0.50
     Davidson diagonalization with overlap
     ethr =  8.32E-03,  avg # of iterations =  1.0

     negative rho (up, down):  1.241E-08 0.000E+00

     total cpu time spent up to now is       70.0 secs

     WARNING: integrated charge=     8.00014922, expected=     8.00000000

     total energy              =     -21.05992523 Ry
     estimated scf accuracy    <       0.28356316 Ry

     iteration #  4     ecut=    60.00 Ry     beta= 0.50
     Davidson diagonalization with overlap
     ethr =  3.54E-03,  avg # of iterations =  2.0

     negative rho (up, down):  7.833E-06 0.000E+00

     total cpu time spent up to now is       71.4 secs

     WARNING: integrated charge=     8.00045088, expected=     8.00000000

     total energy              =     -21.17238258 Ry
     estimated scf accuracy    <       1.81144014 Ry

     iteration #  5     ecut=    60.00 Ry     beta= 0.50
     Davidson diagonalization with overlap
     ethr =  3.54E-03,  avg # of iterations =  2.0

     negative rho (up, down):  3.808E-06 0.000E+00

     total cpu time spent up to now is       72.8 secs

     WARNING: integrated charge=     8.00030694, expected=     8.00000000

     total energy              =     -21.13338083 Ry
     estimated scf accuracy    <       0.38045051 Ry

     iteration #  6     ecut=    60.00 Ry     beta= 0.50
     Davidson diagonalization with overlap
     ethr =  3.54E-03,  avg # of iterations =  1.0

     negative rho (up, down):  3.336E-07 0.000E+00

     total cpu time spent up to now is       74.0 secs

     WARNING: integrated charge=     8.00074545, expected=     8.00000000

     total energy              =     -21.30973587 Ry
     estimated scf accuracy    <       0.88767605 Ry

     iteration #  7     ecut=    60.00 Ry     beta= 0.50
     Davidson diagonalization with overlap
     ethr =  3.54E-03,  avg # of iterations =  1.0

     negative rho (up, down):  1.109E-08 0.000E+00

     total cpu time spent up to now is       75.3 secs

     WARNING: integrated charge=     8.00018925, expected=     8.00000000

     total energy              =     -21.23182395 Ry
     estimated scf accuracy    <       0.92690809 Ry

     iteration #  8     ecut=    60.00 Ry     beta= 0.50
     Davidson diagonalization with overlap
     ethr =  3.54E-03,  avg # of iterations =  1.0

     total cpu time spent up to now is       76.5 secs

     WARNING: integrated charge=     8.00006276, expected=     8.00000000

     total energy              =     -21.20799713 Ry
     estimated scf accuracy    <       0.56840346 Ry

     iteration #  9     ecut=    60.00 Ry     beta= 0.50
     Davidson diagonalization with overlap
     ethr =  3.54E-03,  avg # of iterations =  1.0

     total cpu time spent up to now is       77.8 secs

     WARNING: integrated charge=     8.00026616, expected=     8.00000000

     total energy              =     -21.21287603 Ry
     estimated scf accuracy    <       0.10725768 Ry

     iteration # 10     ecut=    60.00 Ry     beta= 0.50
     Davidson diagonalization with overlap
     ethr =  1.34E-03,  avg # of iterations =  1.0

     negative rho (up, down):  4.536E-08 0.000E+00

     total cpu time spent up to now is       79.0 secs

     WARNING: integrated charge=     8.00032660, expected=     8.00000000

     total energy              =     -21.20754538 Ry
     estimated scf accuracy    <       0.08907887 Ry

     iteration # 11     ecut=    60.00 Ry     beta= 0.50
     Davidson diagonalization with overlap
     ethr =  1.11E-03,  avg # of iterations =  1.0

     negative rho (up, down):  3.769E-08 0.000E+00

     total cpu time spent up to now is       80.2 secs

     WARNING: integrated charge=     8.00034060, expected=     8.00000000

     total energy              =     -21.20919687 Ry
     estimated scf accuracy    <       0.00802767 Ry

     iteration # 12     ecut=    60.00 Ry     beta= 0.50
     Davidson diagonalization with overlap
     ethr =  1.00E-04,  avg # of iterations =  1.0

     negative rho (up, down):  3.486E-06 0.000E+00

     total cpu time spent up to now is       81.4 secs

     WARNING: integrated charge=     8.00029893, expected=     8.00000000

     total energy              =     -21.20426908 Ry
     estimated scf accuracy    <       0.17857099 Ry

     iteration # 13     ecut=    60.00 Ry     beta= 0.50
     Davidson diagonalization with overlap
     ethr =  1.00E-04,  avg # of iterations =  1.0

     negative rho (up, down):  4.363E-06 0.000E+00

     total cpu time spent up to now is       82.7 secs

     WARNING: integrated charge=     8.00027353, expected=     8.00000000

     total energy              =     -21.21094966 Ry
     estimated scf accuracy    <       0.01460496 Ry

     iteration # 14     ecut=    60.00 Ry     beta= 0.50
     Davidson diagonalization with overlap
     ethr =  1.00E-04,  avg # of iterations =  1.0

     negative rho (up, down):  4.306E-06 0.000E+00

     total cpu time spent up to now is       83.9 secs

     WARNING: integrated charge=     8.00014526, expected=     8.00000000

     total energy              =     -21.21399020 Ry
     estimated scf accuracy    <       0.03135494 Ry

     iteration # 15     ecut=    60.00 Ry     beta= 0.50
     Davidson diagonalization with overlap
     ethr =  1.00E-04,  avg # of iterations =  1.0

     negative rho (up, down):  5.214E-06 0.000E+00

     total cpu time spent up to now is       85.1 secs

     WARNING: integrated charge=     8.00014919, expected=     8.00000000

     total energy              =     -21.21627045 Ry
     estimated scf accuracy    <       0.22916088 Ry

     iteration # 16     ecut=    60.00 Ry     beta= 0.50
     Davidson diagonalization with overlap
     ethr =  1.00E-04,  avg # of iterations =  1.0

     negative rho (up, down):  6.560E-06 0.000E+00

     total cpu time spent up to now is       86.4 secs

     WARNING: integrated charge=     8.00023360, expected=     8.00000000

     total energy              =     -21.21461830 Ry
     estimated scf accuracy    <       0.23462110 Ry

     iteration # 17     ecut=    60.00 Ry     beta= 0.50
     Davidson diagonalization with overlap
     ethr =  1.00E-04,  avg # of iterations =  1.0

     negative rho (up, down):  6.869E-06 0.000E+00

     total cpu time spent up to now is       87.6 secs

     WARNING: integrated charge=     8.00014087, expected=     8.00000000

     total energy              =     -21.20689513 Ry
     estimated scf accuracy    <       0.17090252 Ry

     iteration # 18     ecut=    60.00 Ry     beta= 0.50
     Davidson diagonalization with overlap
     ethr =  1.00E-04,  avg # of iterations =  1.0

     negative rho (up, down):  2.467E-06 0.000E+00

     total cpu time spent up to now is       88.8 secs

     WARNING: integrated charge=     8.00003479, expected=     8.00000000

     total energy              =     -21.21040266 Ry
     estimated scf accuracy    <       0.00299423 Ry

     iteration # 19     ecut=    60.00 Ry     beta= 0.50
     Davidson diagonalization with overlap
     ethr =  3.74E-05,  avg # of iterations =  1.0

     negative rho (up, down):  1.548E-06 0.000E+00

     total cpu time spent up to now is       90.0 secs

     WARNING: integrated charge=     8.00007984, expected=     8.00000000

     total energy              =     -21.21033938 Ry
     estimated scf accuracy    <       0.00072407 Ry

     iteration # 20     ecut=    60.00 Ry     beta= 0.50
     Davidson diagonalization with overlap
     ethr =  9.05E-06,  avg # of iterations =  1.0

     negative rho (up, down):  2.616E-06 0.000E+00

     total cpu time spent up to now is       91.2 secs

     WARNING: integrated charge=     7.99998811, expected=     8.00000000

     total energy              =     -21.21042113 Ry
     estimated scf accuracy    <       0.00006120 Ry

     iteration # 21     ecut=    60.00 Ry     beta= 0.50
     Davidson diagonalization with overlap
     ethr =  7.65E-07,  avg # of iterations =  2.0

     negative rho (up, down):  4.539E-06 0.000E+00

     total cpu time spent up to now is       92.6 secs

     WARNING: integrated charge=     8.00010134, expected=     8.00000000

     total energy              =     -21.21030865 Ry
     estimated scf accuracy    <       0.00064864 Ry

     iteration # 22     ecut=    60.00 Ry     beta= 0.50
     Davidson diagonalization with overlap
     ethr =  7.65E-07,  avg # of iterations =  2.0

     negative rho (up, down):  1.650E-06 0.000E+00

     total cpu time spent up to now is       94.0 secs

     WARNING: integrated charge=     8.00022398, expected=     8.00000000

     total energy              =     -21.21038530 Ry
     estimated scf accuracy    <       0.00166279 Ry

     iteration # 23     ecut=    60.00 Ry     beta= 0.50
     Davidson diagonalization with overlap
     ethr =  7.65E-07,  avg # of iterations =  4.0

     negative rho (up, down):  1.482E-06 0.000E+00

     total cpu time spent up to now is       95.6 secs

     WARNING: integrated charge=     8.00005848, expected=     8.00000000

     total energy              =     -21.21044621 Ry
     estimated scf accuracy    <       0.00525435 Ry

     iteration # 24     ecut=    60.00 Ry     beta= 0.50
     Davidson diagonalization with overlap
     ethr =  7.65E-07,  avg # of iterations =  2.0

     negative rho (up, down):  4.486E-07 0.000E+00

     total cpu time spent up to now is       97.0 secs

     WARNING: integrated charge=     7.99997274, expected=     8.00000000

     total energy              =     -21.21034618 Ry
     estimated scf accuracy    <       0.00180764 Ry

     iteration # 25     ecut=    60.00 Ry     beta= 0.50
     Davidson diagonalization with overlap
     ethr =  7.65E-07,  avg # of iterations =  2.0

     negative rho (up, down):  4.926E-08 0.000E+00

     total cpu time spent up to now is       98.4 secs

     WARNING: integrated charge=     7.99993014, expected=     8.00000000

     total energy              =     -21.21038604 Ry
     estimated scf accuracy    <       0.00005739 Ry

     iteration # 26     ecut=    60.00 Ry     beta= 0.50
     Davidson diagonalization with overlap
     ethr =  7.17E-07,  avg # of iterations =  2.0

     negative rho (up, down):  9.545E-08 0.000E+00

     total cpu time spent up to now is       99.7 secs

     WARNING: integrated charge=     8.00000735, expected=     8.00000000

     total energy              =     -21.21039233 Ry
     estimated scf accuracy    <       0.00003094 Ry

     iteration # 27     ecut=    60.00 Ry     beta= 0.50
     Davidson diagonalization with overlap
     ethr =  3.87E-07,  avg # of iterations =  2.0

     total cpu time spent up to now is      101.1 secs

     WARNING: integrated charge=     7.99997276, expected=     8.00000000

     total energy              =     -21.21038906 Ry
     estimated scf accuracy    <       0.00004779 Ry

     iteration # 28     ecut=    60.00 Ry     beta= 0.50
     Davidson diagonalization with overlap
     ethr =  3.87E-07,  avg # of iterations =  1.0

     total cpu time spent up to now is      102.2 secs

     WARNING: integrated charge=     8.00000308, expected=     8.00000000

     total energy              =     -21.21039047 Ry
     estimated scf accuracy    <       0.00000213 Ry

     iteration # 29     ecut=    60.00 Ry     beta= 0.50
     Davidson diagonalization with overlap
     ethr =  2.67E-08,  avg # of iterations =  2.0

     total cpu time spent up to now is      103.5 secs

     total energy              =     -21.21039083 Ry
     estimated scf accuracy    <       0.00000007 Ry

     iteration # 30     ecut=    60.00 Ry     beta= 0.50
     Davidson diagonalization with overlap
     ethr =  9.14E-10,  avg # of iterations =  4.0

     total cpu time spent up to now is      105.3 secs

     total energy              =     -21.21039085 Ry
     estimated scf accuracy    <       0.00000010 Ry

     iteration # 31     ecut=    60.00 Ry     beta= 0.50
     Davidson diagonalization with overlap
     ethr =  9.14E-10,  avg # of iterations =  1.0

     total cpu time spent up to now is      106.5 secs

     total energy              =     -21.21039085 Ry
     estimated scf accuracy    <          4.6E-10 Ry

     iteration # 32     ecut=    60.00 Ry     beta= 0.50
     Davidson diagonalization with overlap
     ethr =  5.70E-12,  avg # of iterations =  4.0

     total cpu time spent up to now is      108.2 secs

     total energy              =     -21.21039085 Ry
     estimated scf accuracy    <          2.7E-09 Ry

     iteration # 33     ecut=    60.00 Ry     beta= 0.50
     Davidson diagonalization with overlap
     ethr =  5.70E-12,  avg # of iterations =  1.0

     total cpu time spent up to now is      109.5 secs

     total energy              =     -21.21039085 Ry
     estimated scf accuracy    <          4.6E-10 Ry

     iteration # 34     ecut=    60.00 Ry     beta= 0.50
     Davidson diagonalization with overlap
     ethr =  5.70E-12,  avg # of iterations =  1.0

     total cpu time spent up to now is      110.7 secs

     End of self-consistent calculation

          k = 0.0000 0.0000 0.0000 ( 61161 PWs)   bands (ev):

   -20.3612  -9.8924  -9.8924  -8.2084  -7.9104  -0.0866   0.6746   0.6746

     the Fermi energy is    -8.0377 ev

!    total energy              =     -21.21039085 Ry
     estimated scf accuracy    <          3.3E-12 Ry
     smearing contrib. (-TS)   =      -0.00598234 Ry
     internal energy E=F+TS    =     -21.20440851 Ry

     The total energy is F=E-TS. E is the sum of the following terms:
     one-electron contribution =     -54.44621446 Ry
     hartree contribution      =      28.25046196 Ry
     xc contribution           =      -7.05826688 Ry
     ewald contribution        =      12.04961594 Ry
     Dispersion Correction     =      -0.00000508 Ry

     convergence has been achieved in  34 iterations

     Forces acting on atoms (cartesian axes, Ry/au):

     atom    1 type  1   force =    -3.52626619   -0.00000000   -0.00000000
     atom    2 type  1   force =     3.52626619    0.00000000    0.00000000

     Total force =     3.526266     Total SCF correction =     0.000002
     Energy error            =      1.0E+00 Ry
     Gradient error          =      3.5E+00 Ry/Bohr

     number of scf cycles    =   3
     number of bfgs steps    =   2

     energy             old  =     -20.1848409097 Ry
     energy             new  =     -21.2103908528 Ry

     CASE: energy            _new < energy            _old

     new trust radius        =       0.2338809452 bohr
     new conv_thr            =            1.0E-10 Ry


ATOMIC_POSITIONS (angstrom)
C             0.0000000000        0.0000000000        0.0000000000    0   0   0
C             1.0008662229        0.0000000000        0.0000000000    1   0   0



     Writing config-only to output data dir ./pwscf.save/
     NEW-OLD atomic charge density approx. for the potential

     negative rho (up, down):  8.731E-05 0.000E+00

     total cpu time spent up to now is      111.7 secs

     Self-consistent Calculation

     iteration #  1     ecut=    60.00 Ry     beta= 0.50
     Davidson diagonalization with overlap
     ethr =  1.00E-06,  avg # of iterations = 12.0
     Minimization algorithm failed to find Fermi energy: reverting to bisection
     Possible cause: smearing is larger than the electronic band-gap.

     negative rho (up, down):  3.994E-05 0.000E+00

     total cpu time spent up to now is      115.5 secs

     total energy              =     -21.65125534 Ry
     estimated scf accuracy    <       0.34123621 Ry

     iteration #  2     ecut=    60.00 Ry     beta= 0.50
     Davidson diagonalization with overlap
     ethr =  4.27E-03,  avg # of iterations =  2.0

     negative rho (up, down):  3.250E-05 0.000E+00

     total cpu time spent up to now is      117.2 secs

     total energy              =     -21.72510445 Ry
     estimated scf accuracy    <       1.51360463 Ry

     iteration #  3     ecut=    60.00 Ry     beta= 0.50
     Davidson diagonalization with overlap
     ethr =  4.27E-03,  avg # of iterations =  1.0
     Minimization algorithm failed to find Fermi energy: reverting to bisection
     Possible cause: smearing is larger than the electronic band-gap.

     negative rho (up, down):  8.024E-06 0.000E+00

     total cpu time spent up to now is      118.5 secs

     total energy              =     -21.77798885 Ry
     estimated scf accuracy    <       0.03159474 Ry

     iteration #  4     ecut=    60.00 Ry     beta= 0.50
     Davidson diagonalization with overlap
     ethr =  3.95E-04,  avg # of iterations =  3.0
     Minimization algorithm failed to find Fermi energy: reverting to bisection
     Possible cause: smearing is larger than the electronic band-gap.

     negative rho (up, down):  8.570E-06 0.000E+00

     total cpu time spent up to now is      120.1 secs

     total energy              =     -21.76939734 Ry
     estimated scf accuracy    <       0.22246751 Ry

     iteration #  5     ecut=    60.00 Ry     beta= 0.50
     Davidson diagonalization with overlap
     ethr =  3.95E-04,  avg # of iterations =  2.0
     Minimization algorithm failed to find Fermi energy: reverting to bisection
     Possible cause: smearing is larger than the electronic band-gap.

     negative rho (up, down):  6.427E-06 0.000E+00

     total cpu time spent up to now is      121.8 secs

     total energy              =     -21.79155321 Ry
     estimated scf accuracy    <       0.05292330 Ry

     iteration #  6     ecut=    60.00 Ry     beta= 0.50
     Davidson diagonalization with overlap
     ethr =  3.95E-04,  avg # of iterations =  1.0
     Minimization algorithm failed to find Fermi energy: reverting to bisection
     Possible cause: smearing is larger than the electronic band-gap.

     negative rho (up, down):  6.263E-06 0.000E+00

     total cpu time spent up to now is      123.2 secs

     total energy              =     -21.79507256 Ry
     estimated scf accuracy    <       0.02071505 Ry

     iteration #  7     ecut=    60.00 Ry     beta= 0.50
     Davidson diagonalization with overlap
     ethr =  2.59E-04,  avg # of iterations =  1.0
     Minimization algorithm failed to find Fermi energy: reverting to bisection
     Possible cause: smearing is larger than the electronic band-gap.

     negative rho (up, down):  1.685E-07 0.000E+00

     total cpu time spent up to now is      124.6 secs

     total energy              =     -21.78190167 Ry
     estimated scf accuracy    <       0.12790156 Ry

     iteration #  8     ecut=    60.00 Ry     beta= 0.50
     Davidson diagonalization with overlap
     ethr =  2.59E-04,  avg # of iterations =  1.0
     Minimization algorithm failed to find Fermi energy: reverting to bisection
     Possible cause: smearing is larger than the electronic band-gap.

     negative rho (up, down):  4.349E-08 0.000E+00

     total cpu time spent up to now is      126.1 secs

     total energy              =     -21.79040176 Ry
     estimated scf accuracy    <       0.00414638 Ry

     iteration #  9     ecut=    60.00 Ry     beta= 0.50
     Davidson diagonalization with overlap
     ethr =  5.18E-05,  avg # of iterations =  1.0
     Minimization algorithm failed to find Fermi energy: reverting to bisection
     Possible cause: smearing is larger than the electronic band-gap.

     total cpu time spent up to now is      127.7 secs

     total energy              =     -21.79079413 Ry
     estimated scf accuracy    <       0.00024655 Ry

     iteration # 10     ecut=    60.00 Ry     beta= 0.50
     Davidson diagonalization with overlap
     ethr =  3.08E-06,  avg # of iterations =  2.0
     Minimization algorithm failed to find Fermi energy: reverting to bisection
     Possible cause: smearing is larger than the electronic band-gap.

     total cpu time spent up to now is      129.3 secs

     total energy              =     -21.79076735 Ry
     estimated scf accuracy    <       0.00047593 Ry

     iteration # 11     ecut=    60.00 Ry     beta= 0.50
     Davidson diagonalization with overlap
     ethr =  3.08E-06,  avg # of iterations =  1.0
     Minimization algorithm failed to find Fermi energy: reverting to bisection
     Possible cause: smearing is larger than the electronic band-gap.

     total cpu time spent up to now is      130.7 secs

     total energy              =     -21.79078963 Ry
     estimated scf accuracy    <       0.00000818 Ry

     iteration # 12     ecut=    60.00 Ry     beta= 0.50
     Davidson diagonalization with overlap
     ethr =  1.02E-07,  avg # of iterations =  4.0
     Minimization algorithm failed to find Fermi energy: reverting to bisection
     Possible cause: smearing is larger than the electronic band-gap.

     total cpu time spent up to now is      132.5 secs

     total energy              =     -21.79079801 Ry
     estimated scf accuracy    <       0.00001805 Ry

     iteration # 13     ecut=    60.00 Ry     beta= 0.50
     Davidson diagonalization with overlap
     ethr =  1.02E-07,  avg # of iterations =  1.0
     Minimization algorithm failed to find Fermi energy: reverting to bisection
     Possible cause: smearing is larger than the electronic band-gap.

     total cpu time spent up to now is      134.0 secs

     total energy              =     -21.79079431 Ry
     estimated scf accuracy    <       0.00003731 Ry

     iteration # 14     ecut=    60.00 Ry     beta= 0.50
     Davidson diagonalization with overlap
     ethr =  1.02E-07,  avg # of iterations =  1.0
     Minimization algorithm failed to find Fermi energy: reverting to bisection
     Possible cause: smearing is larger than the electronic band-gap.

     total cpu time spent up to now is      135.2 secs

     total energy              =     -21.79079231 Ry
     estimated scf accuracy    <       0.00001413 Ry

     iteration # 15     ecut=    60.00 Ry     beta= 0.50
     Davidson diagonalization with overlap
     ethr =  1.02E-07,  avg # of iterations =  2.0
     Minimization algorithm failed to find Fermi energy: reverting to bisection
     Possible cause: smearing is larger than the electronic band-gap.

     total cpu time spent up to now is      136.7 secs

     total energy              =     -21.79079353 Ry
     estimated scf accuracy    <       0.00000003 Ry

     iteration # 16     ecut=    60.00 Ry     beta= 0.50
     Davidson diagonalization with overlap
     ethr =  3.51E-10,  avg # of iterations =  4.0
     Minimization algorithm failed to find Fermi energy: reverting to bisection
     Possible cause: smearing is larger than the electronic band-gap.

     total cpu time spent up to now is      138.3 secs

     total energy              =     -21.79079351 Ry
     estimated scf accuracy    <       0.00000026 Ry

     iteration # 17     ecut=    60.00 Ry     beta= 0.50
     Davidson diagonalization with overlap
     ethr =  3.51E-10,  avg # of iterations =  2.0
     Minimization algorithm failed to find Fermi energy: reverting to bisection
     Possible cause: smearing is larger than the electronic band-gap.

     total cpu time spent up to now is      139.9 secs

     total energy              =     -21.79079352 Ry
     estimated scf accuracy    <       0.00000002 Ry

     iteration # 18     ecut=    60.00 Ry     beta= 0.50
     Davidson diagonalization with overlap
     ethr =  2.89E-10,  avg # of iterations =  2.0
     Minimization algorithm failed to find Fermi energy: reverting to bisection
     Possible cause: smearing is larger than the electronic band-gap.

     total cpu time spent up to now is      141.4 secs

     total energy              =     -21.79079352 Ry
     estimated scf accuracy    <          1.6E-09 Ry

     iteration # 19     ecut=    60.00 Ry     beta= 0.50
     Davidson diagonalization with overlap
     ethr =  2.00E-11,  avg # of iterations =  2.0
     Minimization algorithm failed to find Fermi energy: reverting to bisection
     Possible cause: smearing is larger than the electronic band-gap.

     total cpu time spent up to now is      142.9 secs

     total energy              =     -21.79079352 Ry
     estimated scf accuracy    <          5.8E-10 Ry

     iteration # 20     ecut=    60.00 Ry     beta= 0.50
     Davidson diagonalization with overlap
     ethr =  7.23E-12,  avg # of iterations =  1.0
     Minimization algorithm failed to find Fermi energy: reverting to bisection
     Possible cause: smearing is larger than the electronic band-gap.

     total cpu time spent up to now is      144.0 secs

     End of self-consistent calculation

          k = 0.0000 0.0000 0.0000 ( 61161 PWs)   bands (ev):

   -20.5185  -8.9945  -8.9945  -8.9787  -7.8790  -0.0863   0.6893   0.6893

     the Fermi energy is    -8.7383 ev

!    total energy              =     -21.79079352 Ry
     estimated scf accuracy    <          9.0E-11 Ry
     smearing contrib. (-TS)   =       0.00980325 Ry
     internal energy E=F+TS    =     -21.80059678 Ry

     The total energy is F=E-TS. E is the sum of the following terms:
     one-electron contribution =     -51.20754583 Ry
     hartree contribution      =      26.49072728 Ry
     xc contribution           =      -6.74963313 Ry
     ewald contribution        =       9.66586010 Ry
     Dispersion Correction     =      -0.00000520 Ry

     convergence has been achieved in  20 iterations

     Forces acting on atoms (cartesian axes, Ry/au):

     atom    1 type  1   force =    -1.61812860    0.00000007    0.00000006
     atom    2 type  1   force =     1.61812860   -0.00000007   -0.00000006

     Total force =     1.618129     Total SCF correction =     0.000012
     Energy error            =      5.8E-01 Ry
     Gradient error          =      1.6E+00 Ry/Bohr

     number of scf cycles    =   4
     number of bfgs steps    =   3

     energy             old  =     -21.2103908528 Ry
     energy             new  =     -21.7907935230 Ry

     CASE: energy            _new < energy            _old

     new trust radius        =       0.1983344645 bohr
     new conv_thr            =            1.0E-10 Ry


ATOMIC_POSITIONS (angstrom)
C             0.0000000000        0.0000000000        0.0000000000    0   0   0
C             1.1058203016        0.0000000000        0.0000000000    1   0   0



     Writing config-only to output data dir ./pwscf.save/
     NEW-OLD atomic charge density approx. for the potential

     negative rho (up, down):  7.999E-05 0.000E+00

     total cpu time spent up to now is      145.1 secs

     Self-consistent Calculation

     iteration #  1     ecut=    60.00 Ry     beta= 0.50
     Davidson diagonalization with overlap
     c_bands:  2 eigenvalues not converged
     ethr =  1.00E-06,  avg # of iterations = 20.0

     negative rho (up, down):  3.639E-05 0.000E+00

     total cpu time spent up to now is      149.4 secs

     total energy              =     -21.95745557 Ry
     estimated scf accuracy    <       0.14108557 Ry

     iteration #  2     ecut=    60.00 Ry     beta= 0.50
     Davidson diagonalization with overlap
     ethr =  1.76E-03,  avg # of iterations =  3.0

     negative rho (up, down):  3.104E-05 0.000E+00

     total cpu time spent up to now is      150.9 secs

     WARNING: integrated charge=     8.00091463, expected=     8.00000000

     total energy              =     -21.94363260 Ry
     estimated scf accuracy    <       1.03391991 Ry

     iteration #  3     ecut=    60.00 Ry     beta= 0.50
     Davidson diagonalization with overlap
     ethr =  1.76E-03,  avg # of iterations =  2.0

     negative rho (up, down):  1.010E-05 0.000E+00

     total cpu time spent up to now is      152.1 secs

     WARNING: integrated charge=     8.00061298, expected=     8.00000000

     total energy              =     -22.01470601 Ry
     estimated scf accuracy    <       0.00388554 Ry

     iteration #  4     ecut=    60.00 Ry     beta= 0.50
     Davidson diagonalization with overlap
     ethr =  4.86E-05,  avg # of iterations = 20.0

     negative rho (up, down):  5.406E-06 0.000E+00

     total cpu time spent up to now is      155.4 secs

     WARNING: integrated charge=     8.00048241, expected=     8.00000000

     total energy              =     -22.01595828 Ry
     estimated scf accuracy    <       0.00304030 Ry

     iteration #  5     ecut=    60.00 Ry     beta= 0.50
     Davidson diagonalization with overlap
     ethr =  3.80E-05,  avg # of iterations =  1.0

     total cpu time spent up to now is      156.6 secs

     WARNING: integrated charge=     7.99994455, expected=     8.00000000

     total energy              =     -22.01599352 Ry
     estimated scf accuracy    <       0.00035875 Ry

     iteration #  6     ecut=    60.00 Ry     beta= 0.50
     Davidson diagonalization with overlap
     ethr =  4.48E-06,  avg # of iterations =  5.0

     negative rho (up, down):  6.940E-08 0.000E+00

     total cpu time spent up to now is      158.3 secs

     WARNING: integrated charge=     8.00003803, expected=     8.00000000

     total energy              =     -22.01602019 Ry
     estimated scf accuracy    <       0.00081300 Ry

     iteration #  7     ecut=    60.00 Ry     beta= 0.50
     Davidson diagonalization with overlap
     ethr =  4.48E-06,  avg # of iterations =  1.0

     total cpu time spent up to now is      159.5 secs

     WARNING: integrated charge=     8.00000691, expected=     8.00000000

     total energy              =     -22.01605184 Ry
     estimated scf accuracy    <       0.00003038 Ry

     iteration #  8     ecut=    60.00 Ry     beta= 0.50
     Davidson diagonalization with overlap
     ethr =  3.80E-07,  avg # of iterations =  2.0

     negative rho (up, down):  1.186E-08 0.000E+00

     total cpu time spent up to now is      160.8 secs

     WARNING: integrated charge=     8.00000855, expected=     8.00000000

     total energy              =     -22.01605175 Ry
     estimated scf accuracy    <       0.00000545 Ry

     iteration #  9     ecut=    60.00 Ry     beta= 0.50
     Davidson diagonalization with overlap
     ethr =  6.81E-08,  avg # of iterations =  1.0

     total cpu time spent up to now is      162.2 secs

     WARNING: integrated charge=     8.00000082, expected=     8.00000000

     total energy              =     -22.01605236 Ry
     estimated scf accuracy    <       0.00000097 Ry

     iteration # 10     ecut=    60.00 Ry     beta= 0.50
     Davidson diagonalization with overlap
     ethr =  1.21E-08,  avg # of iterations =  1.0

     total cpu time spent up to now is      163.4 secs

     total energy              =     -22.01605244 Ry
     estimated scf accuracy    <          2.7E-09 Ry

     iteration # 11     ecut=    60.00 Ry     beta= 0.50
     Davidson diagonalization with overlap
     ethr =  3.43E-11,  avg # of iterations =  2.0

     total cpu time spent up to now is      165.0 secs

     total energy              =     -22.01605244 Ry
     estimated scf accuracy    <          6.3E-10 Ry

     iteration # 12     ecut=    60.00 Ry     beta= 0.50
     Davidson diagonalization with overlap
     ethr =  7.88E-12,  avg # of iterations =  1.0

     total cpu time spent up to now is      166.2 secs

     End of self-consistent calculation

          k = 0.0000 0.0000 0.0000 ( 61161 PWs)   bands (ev):

   -20.2066  -9.5388  -8.4670  -8.4670  -7.8832  -0.0979   0.2565   0.2565

     the Fermi energy is    -8.2206 ev

!    total energy              =     -22.01605244 Ry
     estimated scf accuracy    <          2.4E-11 Ry
     smearing contrib. (-TS)   =       0.00538639 Ry
     internal energy E=F+TS    =     -22.02143883 Ry

     The total energy is F=E-TS. E is the sum of the following terms:
     one-electron contribution =     -48.71621476 Ry
     hartree contribution      =      25.16192952 Ry
     xc contribution           =      -6.53067243 Ry
     ewald contribution        =       8.06352432 Ry
     Dispersion Correction     =      -0.00000548 Ry

     convergence has been achieved in  12 iterations

     Forces acting on atoms (cartesian axes, Ry/au):

     atom    1 type  1   force =    -0.69572203    0.00000000    0.00000000
     atom    2 type  1   force =     0.69572203   -0.00000000   -0.00000000

     Total force =     0.695722     Total SCF correction =     0.000004
     Energy error            =      2.3E-01 Ry
     Gradient error          =      7.0E-01 Ry/Bohr

     number of scf cycles    =   5
     number of bfgs steps    =   4

     energy             old  =     -21.7907935230 Ry
     energy             new  =     -22.0160524355 Ry

     CASE: energy            _new < energy            _old

     new trust radius        =       0.1495930994 bohr
     new conv_thr            =            1.0E-10 Ry


ATOMIC_POSITIONS (angstrom)
C             0.0000000000        0.0000000000        0.0000000000    0   0   0
C             1.1849815608        0.0000000000        0.0000000000    1   0   0



     Writing config-only to output data dir ./pwscf.save/
     NEW-OLD atomic charge density approx. for the potential

     negative rho (up, down):  6.412E-05 0.000E+00

     total cpu time spent up to now is      167.3 secs

     Self-consistent Calculation

     iteration #  1     ecut=    60.00 Ry     beta= 0.50
     Davidson diagonalization with overlap
     ethr =  1.00E-06,  avg # of iterations =  9.0

     negative rho (up, down):  2.889E-05 0.000E+00

     total cpu time spent up to now is      170.2 secs

     total energy              =     -22.05478287 Ry
     estimated scf accuracy    <       0.09431783 Ry

     iteration #  2     ecut=    60.00 Ry     beta= 0.50
     Davidson diagonalization with overlap
     ethr =  1.18E-03,  avg # of iterations =  2.0
     Minimization algorithm failed to find Fermi energy: reverting to bisection
     Possible cause: smearing is larger than the electronic band-gap.

     negative rho (up, down):  2.346E-05 0.000E+00

     total cpu time spent up to now is      171.7 secs

     total energy              =     -22.04380964 Ry
     estimated scf accuracy    <       0.29099029 Ry

     iteration #  3     ecut=    60.00 Ry     beta= 0.50
     Davidson diagonalization with overlap
     ethr =  1.18E-03,  avg # of iterations =  1.0

     negative rho (up, down):  1.709E-05 0.000E+00

     total cpu time spent up to now is      172.9 secs

     total energy              =     -22.07704265 Ry
     estimated scf accuracy    <       0.16966293 Ry

     iteration #  4     ecut=    60.00 Ry     beta= 0.50
     Davidson diagonalization with overlap
     ethr =  1.18E-03,  avg # of iterations =  1.0

     negative rho (up, down):  9.648E-06 0.000E+00

     total cpu time spent up to now is      174.0 secs

     total energy              =     -22.08737488 Ry
     estimated scf accuracy    <       0.00367788 Ry

     iteration #  5     ecut=    60.00 Ry     beta= 0.50
     Davidson diagonalization with overlap
     ethr =  4.60E-05,  avg # of iterations =  1.0

     negative rho (up, down):  3.696E-06 0.000E+00

     total cpu time spent up to now is      175.2 secs

     total energy              =     -22.08764785 Ry
     estimated scf accuracy    <       0.00013879 Ry

     iteration #  6     ecut=    60.00 Ry     beta= 0.50
     Davidson diagonalization with overlap
     ethr =  1.73E-06,  avg # of iterations =  2.0

     negative rho (up, down):  4.083E-07 0.000E+00

     total cpu time spent up to now is      176.5 secs

     total energy              =     -22.08765943 Ry
     estimated scf accuracy    <       0.00001227 Ry

     iteration #  7     ecut=    60.00 Ry     beta= 0.50
     Davidson diagonalization with overlap
     ethr =  1.53E-07,  avg # of iterations =  1.0

     negative rho (up, down):  2.621E-08 0.000E+00

     total cpu time spent up to now is      177.7 secs

     total energy              =     -22.08766004 Ry
     estimated scf accuracy    <       0.00000117 Ry

     iteration #  8     ecut=    60.00 Ry     beta= 0.50
     Davidson diagonalization with overlap
     ethr =  1.46E-08,  avg # of iterations =  2.0

     total cpu time spent up to now is      179.1 secs

     total energy              =     -22.08766025 Ry
     estimated scf accuracy    <       0.00000272 Ry

     iteration #  9     ecut=    60.00 Ry     beta= 0.50
     Davidson diagonalization with overlap
     ethr =  1.46E-08,  avg # of iterations =  1.0

     total cpu time spent up to now is      180.3 secs

     total energy              =     -22.08766043 Ry
     estimated scf accuracy    <       0.00000010 Ry

     iteration # 10     ecut=    60.00 Ry     beta= 0.50
     Davidson diagonalization with overlap
     ethr =  1.23E-09,  avg # of iterations =  1.0

     total cpu time spent up to now is      181.4 secs

     total energy              =     -22.08766044 Ry
     estimated scf accuracy    <       0.00000001 Ry

     iteration # 11     ecut=    60.00 Ry     beta= 0.50
     Davidson diagonalization with overlap
     ethr =  1.52E-10,  avg # of iterations =  1.0

     total cpu time spent up to now is      182.6 secs

     total energy              =     -22.08766044 Ry
     estimated scf accuracy    <          1.5E-10 Ry

     iteration # 12     ecut=    60.00 Ry     beta= 0.50
     Davidson diagonalization with overlap
     ethr =  1.92E-12,  avg # of iterations =  2.0

     total cpu time spent up to now is      184.0 secs

     total energy              =     -22.08766044 Ry
     estimated scf accuracy    <          1.2E-10 Ry

     iteration # 13     ecut=    60.00 Ry     beta= 0.50
     Davidson diagonalization with overlap
     ethr =  1.51E-12,  avg # of iterations =  1.0

     total cpu time spent up to now is      185.1 secs

     End of self-consistent calculation

          k = 0.0000 0.0000 0.0000 ( 61161 PWs)   bands (ev):

   -19.9578  -9.8726  -8.2279  -8.2279  -7.8488  -0.4048  -0.4048  -0.1111

     the Fermi energy is    -8.0107 ev

!    total energy              =     -22.08766044 Ry
     estimated scf accuracy    <          2.2E-12 Ry
     smearing contrib. (-TS)   =      -0.00092454 Ry
     internal energy E=F+TS    =     -22.08673590 Ry

     The total energy is F=E-TS. E is the sum of the following terms:
     one-electron contribution =     -46.96774263 Ry
     hartree contribution      =      24.22585373 Ry
     xc contribution           =      -6.38823020 Ry
     ewald contribution        =       7.04338901 Ry
     Dispersion Correction     =      -0.00000581 Ry

     convergence has been achieved in  13 iterations

     Forces acting on atoms (cartesian axes, Ry/au):

     atom    1 type  1   force =    -0.29506086    0.00000000    0.00000000
     atom    2 type  1   force =     0.29506086   -0.00000000   -0.00000000

     Total force =     0.295061     Total SCF correction =     0.000001
     Energy error            =      7.2E-02 Ry
     Gradient error          =      3.0E-01 Ry/Bohr

     number of scf cycles    =   6
     number of bfgs steps    =   5

     energy             old  =     -22.0160524355 Ry
     energy             new  =     -22.0876604372 Ry

     CASE: energy            _new < energy            _old

     new trust radius        =       0.1101655755 bohr
     new conv_thr            =            1.0E-10 Ry


ATOMIC_POSITIONS (angstrom)
C             0.0000000000        0.0000000000        0.0000000000    0   0   0
C             1.2432786727        0.0000000000        0.0000000000    1   0   0



     Writing config-only to output data dir ./pwscf.save/
     NEW-OLD atomic charge density approx. for the potential

     negative rho (up, down):  4.756E-05 0.000E+00

     total cpu time spent up to now is      186.0 secs

     Self-consistent Calculation

     iteration #  1     ecut=    60.00 Ry     beta= 0.50
     Davidson diagonalization with overlap
     ethr =  1.00E-06,  avg # of iterations =  7.0

     negative rho (up, down):  2.149E-05 0.000E+00

     total cpu time spent up to now is      188.4 secs

     total energy              =     -22.08719855 Ry
     estimated scf accuracy    <       0.06519808 Ry

     iteration #  2     ecut=    60.00 Ry     beta= 0.50
     Davidson diagonalization with overlap
     ethr =  8.15E-04,  avg # of iterations =  2.0

     negative rho (up, down):  1.633E-05 0.000E+00

     total cpu time spent up to now is      189.7 secs

     total energy              =     -22.09365354 Ry
     estimated scf accuracy    <       0.10806708 Ry

     iteration #  3     ecut=    60.00 Ry     beta= 0.50
     Davidson diagonalization with overlap
     ethr =  8.15E-04,  avg # of iterations =  1.0

     negative rho (up, down):  1.383E-05 0.000E+00

     total cpu time spent up to now is      190.8 secs

     total energy              =     -22.10280595 Ry
     estimated scf accuracy    <       0.09752631 Ry

     iteration #  4     ecut=    60.00 Ry     beta= 0.50
     Davidson diagonalization with overlap
     ethr =  8.15E-04,  avg # of iterations =  1.0

     negative rho (up, down):  1.872E-07 0.000E+00

     total cpu time spent up to now is      192.0 secs

     total energy              =     -22.10818051 Ry
     estimated scf accuracy    <       0.00305857 Ry

     iteration #  5     ecut=    60.00 Ry     beta= 0.50
     Davidson diagonalization with overlap
     ethr =  3.82E-05,  avg # of iterations =  1.0

     negative rho (up, down):  3.464E-06 0.000E+00

     total cpu time spent up to now is      193.2 secs

     total energy              =     -22.10832930 Ry
     estimated scf accuracy    <       0.00507422 Ry

     iteration #  6     ecut=    60.00 Ry     beta= 0.50
     Davidson diagonalization with overlap
     ethr =  3.82E-05,  avg # of iterations =  1.0

     negative rho (up, down):  1.314E-06 0.000E+00

     total cpu time spent up to now is      194.4 secs

     total energy              =     -22.10897616 Ry
     estimated scf accuracy    <       0.00020238 Ry

     iteration #  7     ecut=    60.00 Ry     beta= 0.50
     Davidson diagonalization with overlap
     ethr =  2.53E-06,  avg # of iterations =  1.0

     negative rho (up, down):  3.612E-08 0.000E+00

     total cpu time spent up to now is      195.5 secs

     total energy              =     -22.10896401 Ry
     estimated scf accuracy    <       0.00006819 Ry

     iteration #  8     ecut=    60.00 Ry     beta= 0.50
     Davidson diagonalization with overlap
     ethr =  8.52E-07,  avg # of iterations =  1.0

     total cpu time spent up to now is      196.7 secs

     total energy              =     -22.10897330 Ry
     estimated scf accuracy    <       0.00000475 Ry

     iteration #  9     ecut=    60.00 Ry     beta= 0.50
     Davidson diagonalization with overlap
     ethr =  5.94E-08,  avg # of iterations =  1.0

     total cpu time spent up to now is      197.9 secs

     total energy              =     -22.10897315 Ry
     estimated scf accuracy    <       0.00000133 Ry

     iteration # 10     ecut=    60.00 Ry     beta= 0.50
     Davidson diagonalization with overlap
     ethr =  1.66E-08,  avg # of iterations =  1.0

     total cpu time spent up to now is      199.1 secs

     total energy              =     -22.10897325 Ry
     estimated scf accuracy    <       0.00000001 Ry

     iteration # 11     ecut=    60.00 Ry     beta= 0.50
     Davidson diagonalization with overlap
     ethr =  1.63E-10,  avg # of iterations =  2.0

     total cpu time spent up to now is      200.4 secs

     total energy              =     -22.10897325 Ry
     estimated scf accuracy    <          3.9E-10 Ry

     iteration # 12     ecut=    60.00 Ry     beta= 0.50
     Davidson diagonalization with overlap
     ethr =  4.85E-12,  avg # of iterations =  3.0

     total cpu time spent up to now is      201.7 secs

     End of self-consistent calculation

          k = 0.0000 0.0000 0.0000 ( 61161 PWs)   bands (ev):

   -19.7453 -10.0814  -8.0864  -8.0864  -7.7948  -0.8854  -0.8854  -0.1214

     the Fermi energy is    -7.8921 ev

!    total energy              =     -22.10897325 Ry
     estimated scf accuracy    <          2.8E-11 Ry
     smearing contrib. (-TS)   =      -0.00525115 Ry
     internal energy E=F+TS    =     -22.10372209 Ry

     The total energy is F=E-TS. E is the sum of the following terms:
     one-electron contribution =     -45.77295337 Ry
     hartree contribution      =      23.59143772 Ry
     xc contribution           =      -6.29775012 Ry
     ewald contribution        =       6.37554981 Ry
     Dispersion Correction     =      -0.00000612 Ry

     convergence has been achieved in  12 iterations

     Forces acting on atoms (cartesian axes, Ry/au):

     atom    1 type  1   force =    -0.10308630   -0.00000000   -0.00000000
     atom    2 type  1   force =     0.10308630    0.00000000    0.00000000

     Total force =     0.103086     Total SCF correction =     0.000005
     Energy error            =      2.1E-02 Ry
     Gradient error          =      1.0E-01 Ry/Bohr

     number of scf cycles    =   7
     number of bfgs steps    =   6

     energy             old  =     -22.0876604372 Ry
     energy             new  =     -22.1089732483 Ry

     CASE: energy            _new < energy            _old

     new trust radius        =       0.0591565991 bohr
     new conv_thr            =            1.0E-10 Ry


ATOMIC_POSITIONS (angstrom)
C             0.0000000000        0.0000000000        0.0000000000    0   0   0
C             1.2745829969        0.0000000000        0.0000000000    1   0   0



     Writing config-only to output data dir ./pwscf.save/
     NEW-OLD atomic charge density approx. for the potential

     negative rho (up, down):  2.519E-05 0.000E+00

     total cpu time spent up to now is      202.7 secs

     Self-consistent Calculation

     iteration #  1     ecut=    60.00 Ry     beta= 0.50
     Davidson diagonalization with overlap
     ethr =  1.00E-06,  avg # of iterations =  6.0

     negative rho (up, down):  1.134E-05 0.000E+00

     total cpu time spent up to now is      204.8 secs

     total energy              =     -22.10695408 Ry
     estimated scf accuracy    <       0.01723292 Ry

     iteration #  2     ecut=    60.00 Ry     beta= 0.50
     Davidson diagonalization with overlap
     ethr =  2.15E-04,  avg # of iterations =  2.0

     negative rho (up, down):  8.766E-06 0.000E+00

     total cpu time spent up to now is      206.0 secs

     total energy              =     -22.10863867 Ry
     estimated scf accuracy    <       0.03555129 Ry

     iteration #  3     ecut=    60.00 Ry     beta= 0.50
     Davidson diagonalization with overlap
     ethr =  2.15E-04,  avg # of iterations =  1.0

     negative rho (up, down):  7.519E-06 0.000E+00

     total cpu time spent up to now is      207.2 secs

     total energy              =     -22.11186575 Ry
     estimated scf accuracy    <       0.01089408 Ry

     iteration #  4     ecut=    60.00 Ry     beta= 0.50
     Davidson diagonalization with overlap
     ethr =  1.36E-04,  avg # of iterations =  1.0

     negative rho (up, down):  1.855E-06 0.000E+00

     total cpu time spent up to now is      208.4 secs

     total energy              =     -22.11265810 Ry
     estimated scf accuracy    <       0.00022723 Ry

     iteration #  5     ecut=    60.00 Ry     beta= 0.50
     Davidson diagonalization with overlap
     ethr =  2.84E-06,  avg # of iterations =  1.0

     negative rho (up, down):  9.296E-07 0.000E+00

     total cpu time spent up to now is      209.5 secs

     total energy              =     -22.11268688 Ry
     estimated scf accuracy    <       0.00004459 Ry

     iteration #  6     ecut=    60.00 Ry     beta= 0.50
     Davidson diagonalization with overlap
     ethr =  5.57E-07,  avg # of iterations =  1.0

     total cpu time spent up to now is      210.7 secs

     total energy              =     -22.11269338 Ry
     estimated scf accuracy    <       0.00000597 Ry

     iteration #  7     ecut=    60.00 Ry     beta= 0.50
     Davidson diagonalization with overlap
     ethr =  7.46E-08,  avg # of iterations =  1.0

     total cpu time spent up to now is      211.9 secs

     total energy              =     -22.11269426 Ry
     estimated scf accuracy    <       0.00000069 Ry

     iteration #  8     ecut=    60.00 Ry     beta= 0.50
     Davidson diagonalization with overlap
     ethr =  8.62E-09,  avg # of iterations =  1.0

     total cpu time spent up to now is      213.2 secs

     total energy              =     -22.11269426 Ry
     estimated scf accuracy    <       0.00000019 Ry

     iteration #  9     ecut=    60.00 Ry     beta= 0.50
     Davidson diagonalization with overlap
     ethr =  2.43E-09,  avg # of iterations =  1.0

     total cpu time spent up to now is      214.4 secs

     total energy              =     -22.11269427 Ry
     estimated scf accuracy    <       0.00000002 Ry

     iteration # 10     ecut=    60.00 Ry     beta= 0.50
     Davidson diagonalization with overlap
     ethr =  2.79E-10,  avg # of iterations =  1.0

     total cpu time spent up to now is      215.4 secs

     End of self-consistent calculation

          k = 0.0000 0.0000 0.0000 ( 61161 PWs)   bands (ev):

   -19.6142 -10.1864  -8.0128  -8.0128  -7.7593  -1.1328  -1.1328  -0.1271

     the Fermi energy is    -7.8299 ev

!    total energy              =     -22.11269427 Ry
     estimated scf accuracy    <          9.5E-11 Ry
     smearing contrib. (-TS)   =      -0.00717481 Ry
     internal energy E=F+TS    =     -22.10551946 Ry

     The total energy is F=E-TS. E is the sum of the following terms:
     one-electron contribution =     -45.16621166 Ry
     hartree contribution      =      23.27246104 Ry
     xc contribution           =      -6.25403723 Ry
     ewald contribution        =       6.04227471 Ry
     Dispersion Correction     =      -0.00000633 Ry

     convergence has been achieved in  10 iterations

     Forces acting on atoms (cartesian axes, Ry/au):

     atom    1 type  1   force =    -0.02516280   -0.00000000   -0.00000000
     atom    2 type  1   force =     0.02516280    0.00000000    0.00000000

     Total force =     0.025163     Total SCF correction =     0.000008
     Energy error            =      3.7E-03 Ry
     Gradient error          =      2.5E-02 Ry/Bohr

     number of scf cycles    =   8
     number of bfgs steps    =   7

     energy             old  =     -22.1089732483 Ry
     energy             new  =     -22.1126942697 Ry

     CASE: energy            _new < energy            _old

     new trust radius        =       0.0191026504 bohr
     new conv_thr            =            2.5E-11 Ry


ATOMIC_POSITIONS (angstrom)
C             0.0000000000        0.0000000000        0.0000000000    0   0   0
C             1.2846916841        0.0000000000        0.0000000000    1   0   0



     Writing config-only to output data dir ./pwscf.save/
     NEW-OLD atomic charge density approx. for the potential

     negative rho (up, down):  7.097E-06 0.000E+00

     total cpu time spent up to now is      216.5 secs

     Self-consistent Calculation

     iteration #  1     ecut=    60.00 Ry     beta= 0.50
     Davidson diagonalization with overlap
     ethr =  1.00E-06,  avg # of iterations =  5.0

     negative rho (up, down):  3.102E-06 0.000E+00

     total cpu time spent up to now is      218.4 secs

     total energy              =     -22.11243005 Ry
     estimated scf accuracy    <       0.00160982 Ry

     iteration #  2     ecut=    60.00 Ry     beta= 0.50
     Davidson diagonalization with overlap
     ethr =  2.01E-05,  avg # of iterations =  1.0

     negative rho (up, down):  2.382E-06 0.000E+00

     total cpu time spent up to now is      219.5 secs

     total energy              =     -22.11256114 Ry
     estimated scf accuracy    <       0.00378464 Ry

     iteration #  3     ecut=    60.00 Ry     beta= 0.50
     Davidson diagonalization with overlap
     ethr =  2.01E-05,  avg # of iterations =  1.0

     negative rho (up, down):  1.971E-06 0.000E+00

     total cpu time spent up to now is      220.7 secs

     total energy              =     -22.11291322 Ry
     estimated scf accuracy    <       0.00046842 Ry

     iteration #  4     ecut=    60.00 Ry     beta= 0.50
     Davidson diagonalization with overlap
     ethr =  5.86E-06,  avg # of iterations =  1.0

     negative rho (up, down):  5.924E-07 0.000E+00

     total cpu time spent up to now is      221.9 secs

     total energy              =     -22.11296066 Ry
     estimated scf accuracy    <       0.00000617 Ry

     iteration #  5     ecut=    60.00 Ry     beta= 0.50
     Davidson diagonalization with overlap
     ethr =  7.72E-08,  avg # of iterations =  1.0

     negative rho (up, down):  9.076E-08 0.000E+00

     total cpu time spent up to now is      223.1 secs

     total energy              =     -22.11296123 Ry
     estimated scf accuracy    <       0.00000023 Ry

     iteration #  6     ecut=    60.00 Ry     beta= 0.50
     Davidson diagonalization with overlap
     ethr =  2.89E-09,  avg # of iterations =  2.0

     total cpu time spent up to now is      224.5 secs

     total energy              =     -22.11296128 Ry
     estimated scf accuracy    <       0.00000002 Ry

     iteration #  7     ecut=    60.00 Ry     beta= 0.50
     Davidson diagonalization with overlap
     ethr =  1.97E-10,  avg # of iterations =  2.0

     total cpu time spent up to now is      225.7 secs

     total energy              =     -22.11296128 Ry
     estimated scf accuracy    <          1.7E-09 Ry

     iteration #  8     ecut=    60.00 Ry     beta= 0.50
     Davidson diagonalization with overlap
     ethr =  2.07E-11,  avg # of iterations =  2.0

     total cpu time spent up to now is      227.0 secs

     total energy              =     -22.11296128 Ry
     estimated scf accuracy    <          3.4E-10 Ry

     iteration #  9     ecut=    60.00 Ry     beta= 0.50
     Davidson diagonalization with overlap
     ethr =  4.19E-12,  avg # of iterations =  1.0

     total cpu time spent up to now is      228.1 secs

     End of self-consistent calculation

          k = 0.0000 0.0000 0.0000 ( 61161 PWs)   bands (ev):

   -19.5696 -10.2195  -7.9891  -7.9891  -7.7470  -1.2108  -1.2108  -0.1290

     the Fermi energy is    -7.8097 ev

!    total energy              =     -22.11296128 Ry
     estimated scf accuracy    <          5.6E-12 Ry
     smearing contrib. (-TS)   =      -0.00773776 Ry
     internal energy E=F+TS    =     -22.10522352 Ry

     The total energy is F=E-TS. E is the sum of the following terms:
     one-electron contribution =     -44.97539589 Ry
     hartree contribution      =      23.17263987 Ry
     xc contribution           =      -6.24060493 Ry
     ewald contribution        =       5.93814383 Ry
     Dispersion Correction     =      -0.00000640 Ry

     convergence has been achieved in   9 iterations

     Forces acting on atoms (cartesian axes, Ry/au):

     atom    1 type  1   force =    -0.00312718    0.00000000    0.00000000
     atom    2 type  1   force =     0.00312718   -0.00000000   -0.00000000

     Total force =     0.003127     Total SCF correction =     0.000000
     Energy error            =      2.7E-04 Ry
     Gradient error          =      3.1E-03 Ry/Bohr

     number of scf cycles    =   9
     number of bfgs steps    =   8

     energy             old  =     -22.1126942697 Ry
     energy             new  =     -22.1129612820 Ry

     CASE: energy            _new < energy            _old

     new trust radius        =       0.0027109440 bohr
     new conv_thr            =            2.7E-12 Ry


ATOMIC_POSITIONS (angstrom)
C             0.0000000000        0.0000000000        0.0000000000    0   0   0
C             1.2861262539        0.0000000000        0.0000000000    1   0   0



     Writing config-only to output data dir ./pwscf.save/
     NEW-OLD atomic charge density approx. for the potential

     negative rho (up, down):  6.244E-07 0.000E+00

     total cpu time spent up to now is      229.0 secs

     Self-consistent Calculation

     iteration #  1     ecut=    60.00 Ry     beta= 0.50
     Davidson diagonalization with overlap
     ethr =  1.00E-06,  avg # of iterations =  3.0

     negative rho (up, down):  2.320E-07 0.000E+00

     total cpu time spent up to now is      230.5 secs

     total energy              =     -22.11295550 Ry
     estimated scf accuracy    <       0.00003068 Ry

     iteration #  2     ecut=    60.00 Ry     beta= 0.50
     Davidson diagonalization with overlap
     ethr =  3.84E-07,  avg # of iterations =  2.0

     negative rho (up, down):  1.664E-07 0.000E+00

     total cpu time spent up to now is      231.7 secs

     total energy              =     -22.11295806 Ry
     estimated scf accuracy    <       0.00007236 Ry

     iteration #  3     ecut=    60.00 Ry     beta= 0.50
     Davidson diagonalization with overlap
     ethr =  3.84E-07,  avg # of iterations =  1.0

     negative rho (up, down):  1.278E-07 0.000E+00

     total cpu time spent up to now is      232.9 secs

     total energy              =     -22.11296478 Ry
     estimated scf accuracy    <       0.00000635 Ry

     iteration #  4     ecut=    60.00 Ry     beta= 0.50
     Davidson diagonalization with overlap
     ethr =  7.94E-08,  avg # of iterations =  1.0

     negative rho (up, down):  2.941E-08 0.000E+00

     total cpu time spent up to now is      234.0 secs

     total energy              =     -22.11296552 Ry
     estimated scf accuracy    <       0.00000016 Ry

     iteration #  5     ecut=    60.00 Ry     beta= 0.50
     Davidson diagonalization with overlap
     ethr =  2.05E-09,  avg # of iterations =  1.0

     total cpu time spent up to now is      235.2 secs

     total energy              =     -22.11296554 Ry
     estimated scf accuracy    <          2.1E-09 Ry

     iteration #  6     ecut=    60.00 Ry     beta= 0.50
     Davidson diagonalization with overlap
     ethr =  2.59E-11,  avg # of iterations =  2.0

     total cpu time spent up to now is      236.5 secs

     total energy              =     -22.11296554 Ry
     estimated scf accuracy    <          1.3E-10 Ry

     iteration #  7     ecut=    60.00 Ry     beta= 0.50
     Davidson diagonalization with overlap
     ethr =  1.63E-12,  avg # of iterations =  2.0

     total cpu time spent up to now is      237.8 secs

     total energy              =     -22.11296554 Ry
     estimated scf accuracy    <          8.0E-12 Ry

     iteration #  8     ecut=    60.00 Ry     beta= 0.50
     Davidson diagonalization with overlap
     ethr =  1.00E-13,  avg # of iterations =  2.0

     total cpu time spent up to now is      238.9 secs

     End of self-consistent calculation

          k = 0.0000 0.0000 0.0000 ( 61161 PWs)   bands (ev):

   -19.5631 -10.2242  -7.9857  -7.9857  -7.7452  -1.2217  -1.2217  -0.1293

     the Fermi energy is    -7.8069 ev

!    total energy              =     -22.11296554 Ry
     estimated scf accuracy    <          2.1E-12 Ry
     smearing contrib. (-TS)   =      -0.00781556 Ry
     internal energy E=F+TS    =     -22.10514998 Ry

     The total energy is F=E-TS. E is the sum of the following terms:
     one-electron contribution =     -44.94851185 Ry
     hartree contribution      =      23.15859328 Ry
     xc contribution           =      -6.23872457 Ry
     ewald contribution        =       5.92349957 Ry
     Dispersion Correction     =      -0.00000641 Ry

     convergence has been achieved in   8 iterations

     Forces acting on atoms (cartesian axes, Ry/au):

     atom    1 type  1   force =    -0.00011852    0.00000000    0.00000000
     atom    2 type  1   force =     0.00011852   -0.00000000   -0.00000000

     Total force =     0.000119     Total SCF correction =     0.000000
     Energy error            =      4.3E-06 Ry
     Gradient error          =      1.2E-04 Ry/Bohr

     bfgs converged in  10 scf cycles and   9 bfgs steps
     (criteria: energy <  1.0E-04 Ry, force <  1.0E-03 Ry/Bohr)

     End of BFGS Geometry Optimization

     Final energy             =     -22.1129655377 Ry

     File ./pwscf.bfgs deleted, as requested
Begin final coordinates

ATOMIC_POSITIONS (angstrom)
C             0.0000000000        0.0000000000        0.0000000000    0   0   0
C             1.2861262539        0.0000000000        0.0000000000    1   0   0
End final coordinates



     Writing all to output data dir ./pwscf.save/

     init_run     :      2.22s CPU      2.27s WALL (       1 calls)
     electrons    :    363.56s CPU    228.13s WALL (      10 calls)
     update_pot   :      5.42s CPU      5.99s WALL (       9 calls)
     forces       :      3.29s CPU      2.04s WALL (      10 calls)
     force_london :      0.00s CPU      0.00s WALL (      10 calls)

     Called by init_run:
     wfcinit      :      0.86s CPU      0.77s WALL (       1 calls)
     potinit      :      0.49s CPU      0.59s WALL (       1 calls)
     hinit0       :      0.75s CPU      0.78s WALL (       1 calls)

     Called by electrons:
     c_bands      :    206.74s CPU    104.06s WALL (     160 calls)
     sum_band     :     69.92s CPU     34.48s WALL (     160 calls)
     v_of_rho     :     68.56s CPU     74.02s WALL (     170 calls)
     mix_rho      :     20.10s CPU     17.49s WALL (     160 calls)
     energy_londo :      0.02s CPU      0.01s WALL (      10 calls)

     Called by c_bands:
     init_us_2    :      1.84s CPU      0.60s WALL (     321 calls)
     init_us_2:cp :      1.83s CPU      0.60s WALL (     321 calls)
     regterg      :    206.41s CPU    103.78s WALL (     160 calls)

     Called by *egterg:
     rdiaghg      :      0.33s CPU      0.06s WALL (     500 calls)
     h_psi        :    175.21s CPU     97.97s WALL (     510 calls)
     g_psi        :      3.38s CPU      0.78s WALL (     349 calls)

     Called by h_psi:
     h_psi:calbec :      1.03s CPU      0.32s WALL (     510 calls)
     vloc_psi     :    171.29s CPU     96.90s WALL (     510 calls)
     add_vuspsi   :      1.50s CPU      0.30s WALL (     510 calls)

     General routines
     calbec       :      1.13s CPU      0.35s WALL (     550 calls)
     fft          :     46.11s CPU     44.08s WALL (    1379 calls)
     ffts         :      5.43s CPU      5.44s WALL (     160 calls)
     fftw         :    200.44s CPU    105.36s WALL (    4002 calls)

     Parallel routines

     PWSCF        :   6m15.06s CPU   3m59.34s WALL


   This run was terminated on:  14:48:15   5Sep2022            

=------------------------------------------------------------------------------=
   JOB DONE.
=------------------------------------------------------------------------------=
