5
Properties=species:S:1:pos:R:3 energy=-417.96 pbc="F F F"
C        0.99826000      -0.00246000      -0.00436000
H        2.09021000      -0.00243000       0.00414000
H        0.63379000       1.02686000       0.00414000
H        0.62704000      -0.52773000       0.87811000
H        0.64136000      -0.50747000      -0.90540000
8
Properties=species:S:1:pos:R:3 energy=-712.42 pbc="F F F"
C        1.00404000      -0.00295000      -0.00640000
C        2.51596000      -0.00702000       0.00059000
H        0.62235000       1.02240000      -0.00164000
H        0.61411000      -0.51974000       0.87561000
H        0.62237000      -0.50842000      -0.89857000
H        2.89765000       0.50210000       0.89062000
H        2.90589000       0.50609000      -0.88357000
H        2.89763000      -1.03243000       0.00006000
4
Properties=species:S:1:pos:R:3 energy=-404.88 pbc="F F F"
C        0.99495000       0.00000000       0.00000000
C        2.19521000       0.00000000       0.00000000
H       -0.07071000       0.00000000       0.00000000
H        3.26087000       0.00000000       0.00000000
9
Properties=species:S:1:pos:R:3 energy=-796.98 pbc="F F F"
C        0.98270000      -0.00179000       0.00455000
O        2.40330000       0.02363000       0.00000000
C        2.90147000       1.35426000      -0.00455000
H        0.65650000      -1.04555000       0.00312000
H        0.58759000       0.48886000      -0.89020000
H        0.59362000       0.48472000       0.90444000
H        3.99424000       1.31334000      -0.00312000
H        2.57085000       1.89049000       0.89020000
H        2.57275000       1.88342000      -0.90444000
11
Properties=species:S:1:pos:R:3 energy=-1008.49 pbc="F F F"
C        0.98998000      -0.01336000       0.00412000
C        2.50892000       0.01651000       0.00826000
C        3.04164000       1.43936000       0.00647000
H        0.63090000      -1.04741000       0.00051000
H        0.58974000       0.48838000      -0.88273000
H        0.58540000       0.48354000       0.89177000
H        2.88677000      -0.51545000      -0.87182000
H        2.88159000      -0.51146000       0.89294000
H        2.71140000       1.98078000      -0.88594000
H        4.13606000       1.43474000       0.01521000
H        2.69703000       1.98882000       0.88850000
8
Properties=species:S:1:pos:R:3 energy=-725.93 pbc="F F F"
C       -0.05592000       0.88215000      -0.06572000
C       -0.76458000      -0.44300000      -0.06512000
N        0.69192000      -0.37016000      -0.08060000
H       -0.04144000       1.45388000      -0.98502000
H       -0.02509000       1.45809000       0.84995000
H       -1.23275000      -0.77324000      -0.98413000
H       -1.22649000      -0.78784000       0.85109000
H        1.07883000      -0.57668000       0.84246000
10
Properties=species:S:1:pos:R:3 energy=-871.19 pbc="F F F"
C        1.00460000      -0.00103000      -0.00103000
N        2.46072000       0.01316000       0.00989000
C        2.96822000       1.37810000       0.00297000
H        0.64964000      -1.03648000       0.00675000
H        0.60439000       0.48529000      -0.89694000
H        0.59689000       0.49307000       0.88716000
H        2.80732000      -0.47777000      -0.81352000
H        2.63466000       1.92969000       0.88827000
H        2.65371000       1.91920000      -0.89570000
H        4.06258000       1.36064000       0.01949000
7
Properties=species:S:1:pos:R:3 energy=-653.44 pbc="F F F"
C       -0.08376000       0.89650000      -0.06111000
C       -0.79266000      -0.42854000      -0.06143000
O        0.63598000      -0.34073000       0.01330000
H       -0.02732000       1.45185000      -0.98865000
H       -0.12585000       1.50407000       0.83385000
H       -1.22310000      -0.78328000      -0.98916000
H       -1.32161000      -0.73104000       0.83330000
11
Properties=species:S:1:pos:R:3 energy=-1018.41 pbc="F F F"
C        0.34286000       1.04017000      -0.13399000
C        0.96652000      -0.31841000       0.21410000
N       -0.32324000      -0.95557000      -0.15000000
C       -0.99497000       0.33641000       0.13368000
H        0.59363000       1.87235000       0.52752000
H        0.48728000       1.34465000      -1.17676000
H        1.22798000      -0.44065000       1.27177000
H        1.81974000      -0.62171000      -0.39905000
H       -0.37089000      -1.21977000      -1.13486000
H       -1.81134000       0.59096000      -0.54790000
H       -1.35432000       0.42183000       1.16584000
13
Properties=species:S:1:pos:R:3 energy=-1177.16 pbc="F F F"
C        0.99515000       0.00856000       0.00417000
C        2.51984000       0.00621000       0.00297000
C        3.06609000      -0.73363000      -1.21401000
N        3.00808000       1.38527000       0.01919000
H        0.60352000       0.52844000       0.88615000
H        0.60774000      -1.01590000       0.02419000
H        0.59014000       0.50289000      -0.88675000
H        2.87191000      -0.49429000       0.91114000
H        2.74104000      -0.26590000      -2.15077000
H        2.72049000      -1.77312000      -1.22061000
H        4.16193000      -0.74846000      -1.20644000
H        2.70035000       1.87102000      -0.82350000
H        4.02757000       1.38771000      -0.01227000
9
Properties=species:S:1:pos:R:3 energy=-914.2 pbc="F F F"
C        1.00119000      -0.05258000       0.00343000
C        2.52000000       0.00000000       0.00000000
C        3.00202000       1.36117000       0.00000000
N        3.38623000       2.44616000       0.00000000
H        0.65646000      -1.09150000       0.00110000
H        0.58538000       0.44566000      -0.87937000
H        0.58974000       0.44021000       0.89132000
H        2.89539000      -0.53202000      -0.88118000
H        2.89954000      -0.53378000       0.87831000
12
Properties=species:S:1:pos:R:3 energy=-1155.53 pbc="F F F"
C        0.33723000       1.02278000      -0.13048000
C        0.99607000      -0.33062000       0.21120000
C       -0.32985000      -0.99629000      -0.21134000
C       -1.02069000       0.34049000       0.13055000
H        0.58767000       1.85483000       0.53191000
H        0.48316000       1.33457000      -1.17072000
H        1.23193000      -0.45104000       1.27487000
H        1.87361000      -0.59675000      -0.38285000
H       -0.37414000      -1.25730000      -1.27479000
H       -0.64058000      -1.85872000       0.38291000
H       -1.83865000       0.63707000      -0.53221000
H       -1.35867000       0.41002000       1.17084000
13
Properties=species:S:1:pos:R:3 energy=-1163.14 pbc="F F F"
C        0.99936000       0.00416000      -0.01126000
N        2.46131000       0.01111000      -0.01432000
C        2.97333000      -0.71239000      -1.17698000
C        2.96586000       1.38322000      -0.00343000
H        0.61376000       0.50971000       0.88150000
H        0.61919000      -1.02329000       0.02196000
H        0.57970000       0.49841000      -0.89542000
H        2.63049000      -1.75335000      -1.16437000
H        4.06879000      -0.74327000      -1.15965000
H        2.65641000      -0.25668000      -2.12251000
H        2.61558000       1.91536000       0.88844000
H        2.65054000       1.94886000      -0.88818000
H        4.06111000       1.39037000       0.03768000
11
Properties=species:S:1:pos:R:3 energy=-1028.25 pbc="F F F"
N        0.92480000      -0.08064000      -0.19965000
C        2.33834000       0.03097000       0.12096000
C        2.76098000       1.46257000       0.06777000
C        3.30038000       2.13236000       1.09671000
H        0.64580000      -1.05718000      -0.13094000
H        0.77769000       0.18650000      -1.17061000
H        2.92697000      -0.54994000      -0.59800000
H        2.51657000      -0.39724000       1.11338000
H        2.62421000       1.98304000      -0.87645000
H        3.45476000       1.66325000       2.06291000
H        3.58506000       3.17431000       0.99171000
12
Properties=species:S:1:pos:R:3 energy=-1107.82 pbc="F F F"
C        0.99227000       0.00482000       0.00804000
C        2.51308000      -0.01258000      -0.00101000
C        3.06471000      -0.74219000      -1.21607000
O        2.99692000       1.32775000       0.00028000
H        0.62253000       0.55402000       0.88064000
H        0.58369000      -1.00990000       0.03484000
H        0.59835000       0.51805000      -0.87619000
H        2.87869000      -0.49389000       0.91170000
H        2.74651000      -0.25722000      -2.14556000
H        2.73622000      -1.78578000      -1.23555000
H        4.15987000      -0.72023000      -1.20931000
H        2.67606000       1.76165000      -0.80794000
10
Properties=species:S:1:pos:R:3 energy=-980.82 pbc="F F F"
C        0.99838000      -0.00491000      -0.00737000
C        2.50169000       0.03443000       0.00508000
C        3.22549000      -1.28473000      -0.00532000
O        3.11879000       1.09885000       0.01820000
H        0.60232000       1.01431000       0.00058000
H        0.63800000      -0.53033000       0.88067000
H        0.65216000      -0.51122000      -0.91266000
H        2.51223000      -2.11380000       0.01770000
H        3.86715000      -1.35213000       0.87740000
H        3.82386000      -1.36180000      -0.91704000
12
Properties=species:S:1:pos:R:3 energy=-1096.09 pbc="F F F"
C        0.96554000      -0.09790000      -0.00157000
C        2.47992000      -0.03310000      -0.01160000
O        2.87347000       1.33622000       0.02717000
C        4.28794000       1.47505000       0.01944000
H        0.61882000      -1.13473000      -0.03127000
H        0.55077000       0.43843000      -0.86151000
H        0.56468000       0.38354000       0.89726000
H        2.86607000      -0.50352000      -0.92216000
H        2.88059000      -0.55817000       0.86224000
H        4.52993000       2.54075000       0.04997000
H        4.71004000       1.04684000      -0.89499000
H        4.72517000       0.99197000       0.89870000
10
Properties=species:S:1:pos:R:3 energy=-956.51 pbc="F F F"
O        1.02475000       0.01132000      -0.14228000
C        2.44460000      -0.03451000       0.03577000
C        3.19946000      -0.74496000      -1.04822000
C        3.24920000       0.75296000      -0.95502000
H        0.62006000       0.68163000       0.43501000
H        2.82802000      -0.12393000       1.04717000
H        2.62898000      -1.18710000      -1.85657000
H        4.08158000      -1.30555000      -0.76501000
H        4.17142000       1.20935000      -0.61337000
H        2.72119000       1.32278000      -1.71020000
11
Properties=species:S:1:pos:R:3 energy=-974.5 pbc="F F F"
N        0.97307000       0.00114000       0.03760000
C        2.43164000       0.01319000      -0.00770000
C        3.00114000       1.43469000      -0.00790000
O        4.42465000       1.39643000      -0.02802000
H        0.64406000      -0.96306000      -0.00423000
H        0.60336000       0.45828000      -0.79628000
H        2.78090000      -0.52224000      -0.89807000
H        2.82556000      -0.53681000       0.85451000
H        2.68208000       1.99302000       0.87869000
H        2.66817000       1.98352000      -0.89478000
H        4.71192000       1.02901000       0.82581000
14
Properties=species:S:1:pos:R:3 energy=-1305.32 pbc="F F F"
C        0.98784000      -0.00764000      -0.00077000
C        2.51477000       0.00873000      -0.00625000
C        3.05523000      -0.74689000      -1.21802000
C        3.03628000       1.44371000       0.00805000
H        0.59669000       0.50831000       0.88268000
H        0.61009000      -1.03558000       0.01801000
H        0.58006000       0.48660000      -0.88954000
H        2.86834000      -0.49599000       0.90096000
H        2.72900000      -0.28299000      -2.15531000
H        2.70744000      -1.78542000      -1.21534000
H        4.15031000      -0.76106000      -1.21052000
H        2.71066000       1.99527000      -0.88071000
H        4.13107000       1.45905000       0.03373000
H        2.67362000       1.98030000       0.89121000
12
Properties=species:S:1:pos:R:3 energy=-1161.23 pbc="F F F"
C        0.99217000      -0.01899000      -0.01614000
C        2.49249000       0.02685000      -0.00175000
C        3.20973000      -1.29221000      -0.00691000
C        3.17121000       1.18489000       0.01868000
H        0.55003000       0.98122000      -0.01327000
H        0.62116000      -0.55062000       0.86702000
H        0.63760000      -0.53961000      -0.91120000
H        2.50606000      -2.12815000       0.05551000
H        3.88784000      -1.36823000       0.84983000
H        3.78623000      -1.41141000      -0.92946000
H        2.66180000       2.14320000       0.02199000
H        4.25597000       1.20306000       0.02723000
13
Properties=species:S:1:pos:R:3 energy=-1276.16 pbc="F F F"
C        0.97070000      -0.10276000      -0.06662000
C        2.47950000      -0.01835000       0.04869000
C        2.95355000       1.41754000       0.00706000
C        2.96396000       2.10499000      -1.33273000
O        3.28125000       2.01315000       1.03384000
H        0.63848000      -1.14137000       0.02633000
H        0.62459000       0.27881000      -1.03253000
H        0.48343000       0.48599000       0.71769000
H        2.96657000      -0.57764000      -0.75682000
H        2.80986000      -0.46263000       0.99411000
H        3.48256000       1.48048000      -2.06474000
H        3.49722000       3.05671000      -1.25217000
H        1.93919000       2.29647000      -1.65908000
15
Properties=species:S:1:pos:R:3 energy=-1395.15 pbc="F F F"
C        1.13226000      -0.12389000      -0.15833000
C        2.63133000      -0.14504000       0.06796000
O        3.15282000       1.14559000      -0.23803000
C        4.56287000       1.20484000      -0.04279000
C        5.03585000       2.60327000      -0.38627000
H        0.69023000      -1.09795000       0.06797000
H        0.90355000       0.13599000      -1.19646000
H        0.65875000       0.63482000       0.47244000
H        3.09581000      -0.89558000      -0.58206000
H        2.84658000      -0.39313000       1.11369000
H        5.05784000       0.47463000      -0.69199000
H        4.80202000       0.97795000       1.00170000
H        4.79084000       2.84928000      -1.42539000
H        6.11700000       2.69527000      -0.24793000
H        4.53465000       3.34599000       0.24305000
13
Properties=species:S:1:pos:R:3 energy=-1331.79 pbc="F F F"
C       -1.26828000      -0.00009000      -0.12996000
C       -0.38242000      -1.22339000       0.10437000
C        0.99383000      -0.66921000      -0.05175000
C        0.99436000       0.66757000      -0.04455000
C       -0.38314000       1.21999000       0.11686000
H       -1.62280000       0.00534000      -1.16906000
H       -2.15524000      -0.00359000       0.51216000
H       -0.59218000      -2.00858000      -0.62799000
H       -0.51629000      -1.63095000       1.11164000
H        1.88055000      -1.28392000      -0.12756000
H        1.88085000       1.28360000      -0.11432000
H       -0.51631000       1.61738000       1.12900000
H       -0.59216000       2.01292000      -0.60702000
13
Properties=species:S:1:pos:R:3 energy=-1242.47 pbc="F F F"
C        2.53631000      -0.92774000      -0.86052000
O        2.01631000       0.31396000      -0.40718000
C        3.04558000       1.22543000       0.01984000
C        3.50390000       2.22677000      -1.00176000
C        2.61385000       2.66080000       0.12488000
H        1.70183000      -1.55663000      -1.18266000
H        3.06703000      -1.43515000      -0.04904000
H        3.20867000      -0.77229000      -1.70992000
H        3.76353000       0.88020000       0.75819000
H        3.07364000       2.17543000      -1.99518000
H        4.54166000       2.53435000      -0.97887000
H        3.04569000       3.26169000       0.91647000
H        1.58011000       2.89565000      -0.10175000
15
Properties=species:S:1:pos:R:3 energy=-1393.45 pbc="F F F"
C        1.01932000      -0.09867000       0.13821000
O        2.41360000       0.07817000       0.34817000
C        2.85951000       1.41870000       0.12887000
C        2.49276000       2.31592000       1.30649000
C        4.37358000       1.36287000      -0.03925000
H        0.79079000      -1.16293000       0.24477000
H        0.73683000       0.21596000      -0.87114000
H        0.43759000       0.45060000       0.88307000
H        2.42090000       1.81071000      -0.79618000
H        2.84231000       1.88487000       2.25178000
H        1.40743000       2.42999000       1.39338000
H        2.92583000       3.31541000       1.19391000
H        4.85412000       0.94384000       0.85245000
H        4.79167000       2.35652000      -0.22912000
H        4.64003000       0.70790000      -0.87642000
11
Properties=species:S:1:pos:R:3 energy=-1131.38 pbc="F F F"
O        1.05867000       0.00350000       0.20480000
C        2.26374000      -0.00430000       0.07270000
C        3.34675000       1.08989000      -0.01728000
C        4.27253000      -0.00143000      -0.60997000
C        3.32068000      -1.11560000      -0.10666000
H        3.65194000       1.47068000       0.96167000
H        3.10936000       1.91651000      -0.68915000
H        4.35217000       0.04178000      -1.70259000
H        5.28179000      -0.03084000      -0.18929000
H        3.06387000      -1.87857000      -0.84340000
H        3.61545000      -1.58098000       0.83769000
13
Properties=species:S:1:pos:R:3 energy=-1306.46 pbc="F F F"
C        1.91049000      -0.66083000      -1.19042000
C        2.06825000       0.29640000      -0.26706000
C        3.23695000       1.16654000      -0.13081000
C        3.51015000       2.19769000      -1.19444000
C        3.01876000       2.62928000       0.15598000
H        1.01207000      -1.26868000      -1.21612000
H        2.67432000      -0.85169000      -1.93734000
H        1.27042000       0.43648000       0.46189000
H        4.09572000       0.69685000       0.33893000
H        2.82707000       2.28210000      -2.03246000
H        4.54476000       2.39844000      -1.44809000
H        3.72075000       3.12457000       0.81732000
H        2.00544000       3.00893000       0.22560000
14
Properties=species:S:1:pos:R:3 energy=-1267.25 pbc="F F F"
C        1.78621000      -0.40721000       0.63053000
N        3.16217000       0.04119000       0.45146000
C        3.19478000       1.42115000      -0.06268000
C        4.65182000       1.87773000      -0.20696000
O        5.33240000       1.71719000       1.03537000
H        1.78388000      -1.43458000       1.00875000
H        1.23406000      -0.39537000      -0.31525000
H        1.25874000       0.21423000       1.36181000
H        3.62492000      -0.57601000      -0.21723000
H        2.68999000       2.08055000       0.65328000
H        2.68665000       1.49462000      -1.03051000
H        4.70136000       2.93154000      -0.49649000
H        5.17625000       1.28419000      -0.96304000
H        4.92746000       0.92246000       1.43993000
12
Properties=species:S:1:pos:R:3 energy=-1152.68 pbc="F F F"
C        1.02079000       0.01805000      -0.15433000
N        2.45160000       0.01600000       0.07188000
C        3.14446000      -1.25708000       0.02360000
C        3.16307000       1.19306000       0.17593000
O        4.37931000       1.29262000       0.27289000
H        0.60766000       1.02549000      -0.05597000
H        0.54355000      -0.63930000       0.57805000
H        0.82331000      -0.35172000      -1.16428000
H        2.67610000      -1.94352000       0.73410000
H        4.20260000      -1.14836000       0.27774000
H        3.06134000      -1.66298000      -0.98805000
H        2.51619000       2.08583000       0.17456000
14
Properties=species:S:1:pos:R:3 energy=-1262.44 pbc="F F F"
C        1.33358000      -0.29547000      -0.06490000
O        2.71425000      -0.02537000       0.13870000
C        3.01409000       1.35845000      -0.08375000
C        4.52090000       1.57604000       0.09233000
N        5.28407000       0.85432000      -0.93176000
H        1.15780000      -1.35619000       0.13235000
H        1.05055000      -0.08103000      -1.09980000
H        0.72162000       0.29461000       0.62392000
H        2.47004000       1.96487000       0.64910000
H        2.69920000       1.65163000      -1.09241000
H        4.82958000       1.20856000       1.07713000
H        4.75680000       2.64249000       0.02974000
H        4.93728000      -0.10877000      -0.94470000
H        6.25963000       0.79913000      -0.64428000
12
Properties=species:S:1:pos:R:3 energy=-1105.28 pbc="F F F"
C        1.61243000      -0.44975000      -0.48559000
O        3.00619000      -0.22516000      -0.30837000
N        3.22346000       1.15784000      -0.22146000
C        4.48814000       1.36720000      -0.06107000
C        5.02592000       2.75687000       0.06441000
H        1.44171000      -1.52741000      -0.55327000
H        1.26736000       0.02102000      -1.41135000
H        1.05346000      -0.05691000       0.36937000
H        5.21800000       0.54016000      -0.01034000
H        4.22316000       3.49541000       0.00149000
H        5.74870000       2.92991000      -0.73697000
H        5.53896000       2.85201000       1.02478000
12
Properties=species:S:1:pos:R:3 energy=-1118.32 pbc="F F F"
N        0.99109000       0.00839000       0.07670000
C        2.44968000       0.02969000      -0.07108000
C        3.08011000       1.01958000       0.91829000
O        3.93681000      -0.02469000       1.45658000
C        3.10032000      -1.03423000       0.82327000
H        0.54429000      -0.78398000      -0.38386000
H        0.52954000       0.84036000      -0.28980000
H        2.82656000       0.08134000      -1.09543000
H        2.43568000       1.43576000       1.70044000
H        3.66478000       1.82186000       0.45850000
H        3.70125000      -1.77820000       0.29324000
H        2.46586000      -1.53265000       1.56394000
10
Properties=species:S:1:pos:R:3 energy=-1023.89 pbc="F F F"
N        1.02652000      -0.01238000       0.24513000
C        2.27952000      -0.00732000      -0.28037000
O        2.80873000      -1.02328000      -0.70618000
C        2.92091000       1.32664000      -0.28277000
C        4.15776000       1.48166000      -0.77153000
H        0.56014000       0.80643000       0.60504000
H        0.54069000      -0.89907000       0.27171000
H        2.37173000       2.16897000       0.11673000
H        4.71682000       0.64092000      -1.17486000
H        4.63760000       2.45391000      -0.77848000
11
Properties=species:S:1:pos:R:3 energy=-1163.19 pbc="F F F"
C        1.00000000       0.00000000       0.00000000
C        2.44400000       0.00000000       0.00000000
C        3.63416000       0.00000000       0.00000000
C        5.04016000       0.00000000       0.00000000
C        5.74192000       1.13787000       0.00000000
H        0.60599000       1.02088000       0.01168000
H        0.60592000      -0.52052000       0.87825000
H        0.60592000      -0.50029000      -0.88993000
H        5.55447000      -0.95634000      -0.00000000
H        5.25561000       2.10880000       0.00000000
H        6.82682000       1.11897000       0.00000000
15
Properties=species:S:1:pos:R:3 energy=-1458.12 pbc="F F F"
C        2.08917000      -0.31815000       1.49147000
C        2.48626000       0.04738000       0.06815000
C        3.07625000       1.43368000      -0.03607000
C        2.13177000       2.58956000       0.14039000
C        4.37854000       1.62630000      -0.30758000
H        1.71566000      -1.34682000       1.52487000
H        1.29625000       0.33564000       1.86806000
H        2.94450000      -0.24687000       2.17183000
H        1.61120000      -0.02463000      -0.58891000
H        3.20223000      -0.70038000      -0.29571000
H        1.30120000       2.51296000      -0.56879000
H        2.62491000       3.55214000      -0.03106000
H        1.72388000       2.60361000       1.15578000
H        5.05929000       0.79218000      -0.44685000
H        4.79985000       2.62293000      -0.39509000
13
Properties=species:S:1:pos:R:3 energy=-1306.23 pbc="F F F"
C        1.00010000      -0.05443000       0.00330000
C        2.52000000       0.00000000       0.00000000
C        3.00202000       1.36117000       0.00000000
C        3.39930000       2.48307000       0.00000000
C        3.88132000       3.84424000       0.00000000
H        0.65801000      -1.09369000       0.00293000
H        0.58500000       0.44108000      -0.88045000
H        0.58888000       0.43925000       0.88978000
H        2.89561000      -0.53271000      -0.88086000
H        2.89947000      -0.53410000       0.87836000
H        3.08759000       4.54329000      -0.28088000
H        4.70476000       3.97071000      -0.70959000
H        4.24614000       4.13310000       0.99047000
15
Properties=species:S:1:pos:R:3 energy=-1454.38 pbc="F F F"
C        1.03321000       0.01181000      -0.06548000
C        2.52299000       0.00396000      -0.01485000
C        3.31165000      -0.70755000      -1.08515000
C        3.32396000       0.79752000      -1.01748000
C        4.55773000       1.51922000      -0.59322000
H        0.63935000       0.78729000       0.59771000
H        0.64085000      -0.95346000       0.26716000
H        0.65678000       0.20388000      -1.07497000
H        2.88879000      -0.06845000       1.00403000
H        2.77355000      -1.17299000      -1.90353000
H        4.20037000      -1.24983000      -0.78098000
H        2.79328000       1.33850000      -1.79363000
H        5.09180000       0.98910000       0.20262000
H        4.30115000       2.51720000      -0.22477000
H        5.23730000       1.63287000      -1.44268000
12
Properties=species:S:1:pos:R:3 energy=-1197.04 pbc="F F F"
C       -0.37217000       1.18165000       0.10750000
N       -1.24679000      -0.00167000      -0.00672000
C       -0.37148000      -1.18513000       0.09359000
C        1.01274000      -0.66673000      -0.03977000
C        1.01229000       0.66595000      -0.03212000
H       -0.51105000       1.65975000       1.08285000
H       -0.60785000       1.90803000      -0.67714000
H       -1.64793000       0.00408000      -0.94363000
H       -0.60652000      -1.90234000      -0.69921000
H       -0.50958000      -1.67438000       1.06302000
H        1.88960000      -1.29249000      -0.10373000
H        1.88825000       1.29352000      -0.08879000
14
Properties=species:S:1:pos:R:3 energy=-1322.48 pbc="F F F"
C        0.99962000      -0.03526000       0.04521000
C        2.51022000       0.05465000       0.01391000
C        3.17063000       1.09827000       0.94195000
C        4.19547000      -0.01348000       1.22350000
N        3.15590000      -0.99572000       0.84336000
H        0.64946000      -0.90320000      -0.52403000
H        0.55478000       0.85815000      -0.40540000
H        0.61246000      -0.12152000       1.06696000
H        2.90075000       0.08914000      -1.01240000
H        2.57409000       1.38443000       1.81600000
H        3.55831000       1.99732000       0.45789000
H        5.06242000      -0.00598000       0.55044000
H        4.54439000      -0.08740000       2.25620000
H        3.49832000      -1.80148000       0.32359000
14
Properties=species:S:1:pos:R:3 energy=-1324.02 pbc="F F F"
C        0.84625000      -0.00977000      -0.23400000
C        2.32325000      -0.02941000       0.05041000
C        2.69140000      -0.00700000       1.50836000
C        3.22749000      -0.76933000      -0.91158000
N        3.18912000       0.68929000      -0.89211000
H        0.63183000      -0.00360000      -1.30849000
H        0.38449000       0.88088000       0.20499000
H        0.36583000      -0.89374000       0.19805000
H        3.77593000      -0.02935000       1.66198000
H        2.26443000      -0.87579000       2.02009000
H        2.30295000       0.89839000       1.98631000
H        2.79003000      -1.24045000      -1.78364000
H        4.13270000      -1.23625000      -0.54262000
H        4.01154000       1.07187000      -0.42255000
15
Properties=species:S:1:pos:R:3 energy=-1453.11 pbc="F F F"
C        0.96855000      -0.01070000       0.01323000
C        2.48292000       0.01731000       0.02092000
C        3.15280000       1.05048000       0.96235000
C        4.24206000      -0.00884000       1.22873000
C        3.19305000      -1.07793000       0.85745000
H        0.60210000      -0.87047000      -0.55802000
H        0.56883000       0.89652000      -0.45200000
H        0.55945000      -0.07922000       1.02640000
H        2.87816000       0.07569000      -1.00337000
H        2.56463000       1.30632000       1.85154000
H        3.49720000       1.97266000       0.48700000
H        5.08661000       0.04124000       0.53155000
H        4.62484000      -0.05204000       2.25146000
H        3.57107000      -1.93496000       0.29474000
H        2.61694000      -1.44139000       1.71635000
16
Properties=species:S:1:pos:R:3 energy=-1470.79 pbc="F F F"
C        1.16124000      -0.27645000      -0.08987000
C        2.67731000      -0.16165000      -0.05525000
C        3.12735000       1.29719000       0.01797000
C        4.65064000       1.40280000       0.05382000
N        5.06033000       2.80058000       0.12969000
H        0.86138000      -1.32788000      -0.14398000
H        0.74875000       0.23976000      -0.96272000
H        0.71459000       0.15850000       0.80987000
H        3.09376000      -0.63624000      -0.95232000
H        3.05949000      -0.71492000       0.81108000
H        2.70225000       1.76604000       0.91380000
H        2.73682000       1.84322000      -0.84871000
H        5.08465000       0.94610000      -0.84339000
H        5.04645000       0.86783000       0.92460000
H        4.72300000       3.30177000      -0.69111000
H        6.07763000       2.85705000       0.10094000
16
Properties=species:S:1:pos:R:3 energy=-1471.15 pbc="F F F"
C        1.00980000      -0.02216000       0.01829000