3
Lattice="100.0 0.0 0.0 0.0 100.0 0.0 0.0 0.0 100.0" Properties=species:S:1:pos:R:3:momenta:R:3 ipi_comment="Step:      200000  Bead:       0 positions{angstrom}  cell{angstrom}" pbc="T T T"
O       -2.89770838       6.76492149      25.78733892       0.41094839      -0.09429088       0.29861888
H       -3.22693259       6.92327461      24.89600383      -0.31547195       0.04597911      -0.02131858
H       -3.73951469       6.82619967      26.21403556      -0.09547645       0.04831177      -0.27730030
