LAMMPS Description
 
         3  atoms
         2  bonds
         1  angles
 
           2  atom types
           1  bond types
           1  angle types
 
         -19 19.38859 xlo xhi
         -10 19.38859 ylo yhi
         -19 19.38859 zlo zhi
 
Masses
 
  1 15.9994
  2  1.0080
 
Bond Coeffs
 
  1    1.78    0.2708585 -0.327738785 0.231328959
 
Angle Coeffs
 
  1    0.0700  107.400000

Atoms

  1 1 1 -1.1128        7.098  8.901  17.941  
  2 1 2 0.5564         8.700  8.073  18.276  
  3 1 2 0.5564         7.555  10.053  16.607 

Bonds

 1 1 1 2
 2 1 1 3
 
Angles

 1 1 2 1 3
