96
# CELL(abcABC):   13.49113    27.05389    18.12247    90.00000   107.33000    90.00000  Step:           0  Bead:       0 positions{atomic_unit}  cell{atomic_unit}
       N -7.06589e-01  1.31333e+01  1.16481e+01
       N -2.73492e-01  2.66225e+01  1.43173e+01
       N  9.04073e+00  1.39210e+01  5.65559e+00
       N  8.72197e+00  4.00907e-01  3.08078e+00
       O -2.09344e+00  1.18818e+01  1.30861e+01
       O  1.07893e+00  2.52936e+01  1.28337e+01
       O  1.05372e+01  1.51253e+01  4.14349e+00
       O  7.49624e+00  1.87546e+00  4.69142e+00
       O -3.02468e-01  1.54797e+01  1.20657e+01
       O -9.85721e-01  1.77821e+00  1.35570e+01
       O  8.58597e+00  1.15632e+01  5.20754e+00
       O  9.21842e+00  2.51908e+01  3.66170e+00
       O  8.73499e-02  1.22767e+01  9.47565e+00
       O -9.62713e-01  2.58010e+01  1.65104e+01
       O  8.04258e+00  1.50751e+01  7.53118e+00
       O  9.24675e+00  1.26934e+00  9.09663e-01
       N  5.64807e+00  1.06979e+01  9.90834e+00
       N  6.60951e+00  2.40953e+01  1.60862e+01
       N  2.43748e+00  1.62221e+01  7.41394e+00
       N  1.82535e+00  2.98382e+00  1.32086e+00
       H  6.90393e+00  1.20518e+01  9.11545e+00
       H  5.40917e+00  2.53974e+01  1.69027e+01
       H  1.49320e+00  1.45146e+01  8.26107e+00
       H  2.61056e+00  1.41276e+00  3.12570e-01
       N  5.13234e+00  8.51730e+00  8.64550e+00
       N  6.98600e+00  2.18677e+01  1.72933e+01
       N  2.88920e+00  1.84154e+01  8.72012e+00
       N  1.35607e+00  5.21425e+00  1.32216e-01
       N  3.88085e+00  6.95070e+00  1.00560e+01
       N  8.20470e+00  2.03756e+01  1.59293e+01
       N  4.10662e+00  2.00424e+01  7.26620e+00
       N  6.44344e-02  6.73922e+00  1.57712e+00
       C  2.51870e+00  7.27276e+00  1.46685e+01
       C  9.22931e+00  2.05241e+01  1.12155e+01
       C  5.79536e+00  1.98387e+01  2.88187e+00
       C -1.78087e+00  6.26301e+00  5.93412e+00
       H  1.73037e+00  5.34798e+00  1.48939e+01
       H  1.00817e+01  1.86075e+01  1.09105e+01
       H  6.71480e+00  2.17069e+01  2.59478e+00
       H  1.09980e+01  8.23643e+00  6.25446e+00
       N  2.80192e+00  8.76912e+00  1.67161e+01
       N  9.06919e+00  2.21166e+01  9.25902e+00
       N  5.66430e+00  1.83358e+01  8.08850e-01
       N -1.84085e+00  4.54991e+00  7.76762e+00
       H  7.68725e+00  7.87199e+00  1.13032e+00
       H  9.93654e+00  2.13943e+01  7.60860e+00
       H  8.81208e-01  1.91031e+01  1.64273e+01
       H -2.77746e+00  5.27073e+00  9.41815e+00
       C  3.82428e+00  1.12099e+01  1.66701e+01
       C  8.25047e+00  2.46381e+01  9.40014e+00
       C  4.54322e+00  1.60742e+01  6.44612e-01
       C -7.00026e-01  2.17929e+00  7.78631e+00
       H  9.38684e+00  1.22201e+01  1.22215e+00
       H  8.42330e+00  2.56610e+01  7.62030e+00
       H -8.48927e-01  1.54463e+01  1.60442e+01
       H -8.72887e-01  1.12414e+00  9.55459e+00
       C  4.73877e+00  1.21621e+01  1.44645e+01
       C  7.23136e+00  2.55986e+01  1.16051e+01
       C  3.29670e+00  1.49971e+01  2.70558e+00
       C  5.87293e-01  1.27316e+00  5.66837e+00
       C  5.79218e+00  1.48019e+01  1.42267e+01
       C  6.10295e+00  1.09471e+00  1.17337e+01
       C  2.05415e+00  1.25689e+01  2.47796e+00
       C  2.12785e+00  2.60179e+01  5.81741e+00
       H  5.17571e+00  1.62586e+01  1.55966e+01
       H  6.43484e+00  2.25669e+00  1.00082e+01
       H  1.76976e+00  1.21940e+01  5.12021e-01
       H  2.01785e+00  2.50073e+01  7.58997e+00
       H  4.91871e+00  1.55128e+01  1.23332e+01
       H  6.74109e+00  2.04410e+00  1.34070e+01
       H  3.39308e+00  1.09587e+01  3.09125e+00
       H  1.56097e+00  2.47460e+01  4.35931e+00
       H  7.89633e+00  1.49876e+01  1.41212e+01
       H  4.00684e+00  8.30850e-01  1.20841e+01
       H  4.39722e-01  1.24918e+01  3.72108e+00
       H  4.14869e+00  2.62891e+01  5.19918e+00
       C  3.63821e+00  8.02835e+00  1.24057e+01
       C  8.36920e+00  2.14223e+01  1.35042e+01
       C  4.63856e+00  1.89216e+01  5.04054e+00
       C -4.07578e-01  5.49888e+00  3.85731e+00
       C  4.74510e+00  1.04352e+01  1.23309e+01
       C  7.40045e+00  2.39360e+01  1.36430e+01
       C  3.47948e+00  1.64524e+01  4.96473e+00
       C  6.93860e-01  3.10431e+00  3.64487e+00
       O  5.80274e+00  6.95056e+00  3.48719e+00
       O  1.07526e+01  2.03482e+01  5.05570e+00
       O  2.21735e+00  2.04015e+01  1.39133e+01
       O -3.73973e+00  6.83578e+00  1.20789e+01
       H  5.92389e+00  7.90826e+00  5.01658e+00
       H  1.12998e+01  2.07675e+01  3.32027e+00
       H  1.72980e+00  1.96719e+01  1.23879e+01
       H -3.41833e+00  5.80839e+00  1.36165e+01
       H  6.27916e+00  5.11829e+00  3.92181e+00
       H  1.06215e+01  1.84468e+01  4.95892e+00
       H  1.73944e+00  2.21691e+01  1.37341e+01
       H -3.36213e+00  8.65111e+00  1.24047e+01
96
# CELL(abcABC):   13.49113    27.05389    18.12247    90.00000   107.33000    90.00000  Step:           1  Bead:       0 positions{atomic_unit}  cell{atomic_unit}
       N -7.04555e-01  1.31368e+01  1.16451e+01
       N -2.72685e-01  2.66230e+01  1.43160e+01
       N  9.04020e+00  1.39209e+01  5.65796e+00
       N  8.72528e+00  4.00599e-01  3.07957e+00
       O -2.09549e+00  1.18824e+01  1.30873e+01
       O  1.07830e+00  2.52929e+01  1.28334e+01
       O  1.05404e+01  1.51222e+01  4.14118e+00
       O  7.49299e+00  1.87840e+00  4.69266e+00
       O -3.04205e-01  1.54795e+01  1.20693e+01
       O -9.87581e-01  1.77767e+00  1.35602e+01
       O  8.58393e+00  1.15611e+01  5.20691e+00
       O  9.21581e+00  2.51918e+01  3.66361e+00
       O  8.66915e-02  1.22773e+01  9.47558e+00
       O -9.63845e-01  2.58022e+01  1.65099e+01
       O  8.04641e+00  1.50755e+01  7.53364e+00
       O  9.24578e+00  1.26925e+00  9.13459e-01
       N  5.64739e+00  1.06982e+01  9.90522e+00
       N  6.61054e+00  2.40940e+01  1.60839e+01
       N  2.43746e+00  1.62208e+01  7.41547e+00
       N  1.82257e+00  2.98258e+00  1.31687e+00
       H  6.89703e+00  1.20567e+01  9.11557e+00
       H  5.39875e+00  2.53977e+01  1.68996e+01
       H  1.49328e+00  1.45343e+01  8.25063e+00
       H  2.61844e+00  1.40398e+00  3.08974e-01
       N  5.13294e+00  8.51602e+00  8.64797e+00
       N  6.98629e+00  2.18713e+01  1.72920e+01
       N  2.89042e+00  1.84167e+01  8.71848e+00
       N  1.35290e+00  5.21372e+00  1.30943e-01
       N  3.87825e+00  6.94963e+00  1.00573e+01
       N  8.20783e+00  2.03766e+01  1.59270e+01
       N  4.10224e+00  2.00439e+01  7.26456e+00
       N  6.67708e-02  6.73854e+00  1.57576e+00
       C  2.52071e+00  7.27135e+00  1.46678e+01
       C  9.23303e+00  2.05257e+01  1.12147e+01
       C  5.79786e+00  1.98347e+01  2.88166e+00
       C -1.78316e+00  6.26265e+00  5.93737e+00
       H  1.73683e+00  5.36376e+00  1.49026e+01
       H  1.00918e+01  1.86067e+01  1.09170e+01
       H  6.70713e+00  2.17076e+01  2.58761e+00
       H  1.09852e+01  8.24414e+00  6.24507e+00
       N  2.80607e+00  8.76742e+00  1.67176e+01
       N  9.07034e+00  2.21165e+01  9.25672e+00
       N  5.66508e+00  1.83344e+01  8.08292e-01
       N -1.84430e+00  4.55028e+00  7.76480e+00
       H  7.69228e+00  7.85516e+00  1.12697e+00
       H  9.94329e+00  2.13879e+01  7.61535e+00
       H  8.81078e-01  1.91177e+01  1.64150e+01
       H -2.77539e+00  5.26205e+00  9.41830e+00
       C  3.82197e+00  1.12082e+01  1.66738e+01
       C  8.25315e+00  2.46377e+01  9.39980e+00
       C  4.54456e+00  1.60734e+01  6.42609e-01
       C -7.02254e-01  2.17802e+00  7.78654e+00
       H  9.38954e+00  1.22184e+01  1.22173e+00
       H  8.41753e+00  2.56552e+01  7.62826e+00
       H -8.35429e-01  1.54499e+01  1.60496e+01
       H -8.82705e-01  1.11778e+00  9.55180e+00
       C  4.74234e+00  1.21620e+01  1.44631e+01
       C  7.23746e+00  2.55969e+01  1.16046e+01
       C  3.29806e+00  1.49966e+01  2.70587e+00
       C  5.86557e-01  1.27102e+00  5.66462e+00
       C  5.79239e+00  1.47995e+01  1.42305e+01
       C  6.10511e+00  1.09380e+00  1.17361e+01
       C  2.05527e+00  1.25674e+01  2.47749e+00
       C  2.12666e+00  2.60199e+01  5.81684e+00
       H  5.17870e+00  1.62548e+01  1.55901e+01
       H  6.43875e+00  2.27686e+00  1.00228e+01
       H  1.76849e+00  1.21989e+01  5.16423e-01
       H  2.02192e+00  2.49971e+01  7.58063e+00
       H  4.92212e+00  1.55151e+01  1.23432e+01
       H  6.73739e+00  2.05467e+00  1.34163e+01
       H  3.39761e+00  1.09718e+01  3.08763e+00
       H  1.54663e+00  2.47409e+01  4.35760e+00
       H  7.89290e+00  1.49802e+01  1.41215e+01
       H  4.01727e+00  8.31039e-01  1.20887e+01
       H  4.26273e-01  1.25045e+01  3.73767e+00
       H  4.14765e+00  2.63001e+01  5.19992e+00
       C  3.63862e+00  8.02801e+00  1.24040e+01
       C  8.36853e+00  2.14260e+01  1.35049e+01
       C  4.63729e+00  1.89184e+01  5.04381e+00
       C -4.07360e-01  5.49751e+00  3.85879e+00
       C  4.74801e+00  1.04373e+01  1.23309e+01
       C  7.39698e+00  2.39371e+01  1.36439e+01
       C  3.48075e+00  1.64570e+01  4.96833e+00
       C  6.95789e-01  3.10073e+00  3.64912e+00
       O  5.80326e+00  6.94927e+00  3.48587e+00
       O  1.07531e+01  2.03492e+01  5.05340e+00
       O  2.21679e+00  2.03992e+01  1.39104e+01
       O -3.73957e+00  6.83319e+00  1.20757e+01
       H  5.91134e+00  7.91497e+00  5.02242e+00
       H  1.13030e+01  2.07816e+01  3.32413e+00
       H  1.72206e+00  1.96654e+01  1.23697e+01
       H -3.42238e+00  5.79438e+00  1.36219e+01
       H  6.28713e+00  5.11825e+00  3.91777e+00
       H  1.06215e+01  1.84476e+01  4.94198e+00
       H  1.73285e+00  2.21649e+01  1.37472e+01
       H -3.37025e+00  8.64301e+00  1.24191e+01
96
# CELL(abcABC):   13.49113    27.05389    18.12247    90.00000   107.33000    90.00000  Step:           2  Bead:       0 positions{atomic_unit}  cell{atomic_unit}
       N -7.02305e-01  1.31416e+01  1.16410e+01
       N -2.71643e-01  2.66233e+01  1.43152e+01
       N  9.04071e+00  1.39210e+01  5.66013e+00
       N  8.72730e+00  3.99673e-01  3.07956e+00
       O -2.09737e+00  1.18831e+01  1.30889e+01
       O  1.07746e+00  2.52922e+01  1.28338e+01
       O  1.05437e+01  1.51191e+01  4.13885e+00
       O  7.48999e+00  1.88122e+00  4.69400e+00
       O -3.04496e-01  1.54788e+01  1.20730e+01
       O -9.89281e-01  1.77644e+00  1.35635e+01
       O  8.58271e+00  1.15605e+01  5.20633e+00
       O  9.21375e+00  2.51919e+01  3.66676e+00
       O  8.59137e-02  1.22781e+01  9.47588e+00
       O -9.65271e-01  2.58023e+01  1.65088e+01
       O  8.05066e+00  1.50756e+01  7.53604e+00
       O  9.24475e+00  1.26930e+00  9.16999e-01
       N  5.64707e+00  1.06992e+01  9.90250e+00
       N  6.61128e+00  2.40914e+01  1.60817e+01
       N  2.43780e+00  1.62182e+01  7.41706e+00
       N  1.81977e+00  2.98228e+00  1.31317e+00
       H  6.88367e+00  1.20613e+01  9.11851e+00
       H  5.38862e+00  2.53987e+01  1.69001e+01
       H  1.48911e+00  1.45605e+01  8.23670e+00
       H  2.62602e+00  1.40060e+00  3.11167e-01
       N  5.13312e+00  8.51581e+00  8.65009e+00
       N  6.98705e+00  2.18760e+01  1.72915e+01
       N  2.89106e+00  1.84173e+01  8.71631e+00
       N  1.35010e+00  5.21238e+00  1.30449e-01
       N  3.87527e+00  6.94726e+00  1.00574e+01
       N  8.21088e+00  2.03761e+01  1.59248e+01
       N  4.09756e+00  2.00468e+01  7.26351e+00
       N  6.89199e-02  6.73806e+00  1.57335e+00
       C  2.52449e+00  7.27001e+00  1.46673e+01
       C  9.23672e+00  2.05267e+01  1.12131e+01
       C  5.79901e+00  1.98301e+01  2.88256e+00
       C -1.78699e+00  6.26308e+00  5.94056e+00
       H  1.74658e+00  5.38600e+00  1.49127e+01
       H  1.01020e+01  1.86091e+01  1.09274e+01
       H  6.69214e+00  2.17035e+01  2.57995e+00
       H  1.09773e+01  8.24204e+00  6.23310e+00
       N  2.81130e+00  8.76592e+00  1.67190e+01
       N  9.07248e+00  2.21164e+01  9.25463e+00
       N  5.66576e+00  1.83340e+01  8.07348e-01
       N -1.84720e+00  4.55104e+00  7.76366e+00
       H  7.69521e+00  7.84561e+00  1.12065e+00
       H  9.94007e+00  2.13801e+01  7.62326e+00
       H  8.81123e-01  1.91335e+01  1.63966e+01
       H -2.77275e+00  5.25090e+00  9.41930e+00
       C  3.82006e+00  1.12077e+01  1.66789e+01
       C  8.25759e+00  2.46366e+01  9.39882e+00
       C  4.54729e+00  1.60739e+01  6.41166e-01
       C -7.04086e-01  2.17580e+00  7.78732e+00
       H  9.39062e+00  1.22141e+01  1.21926e+00
       H  8.40653e+00  2.56512e+01  7.63839e+00
       H -8.22836e-01  1.54551e+01  1.60479e+01
       H -9.00494e-01  1.11082e+00  9.54833e+00
       C  4.74638e+00  1.21611e+01  1.44609e+01
       C  7.24460e+00  2.55953e+01  1.16029e+01
       C  3.29969e+00  1.49957e+01  2.70487e+00
       C  5.86430e-01  1.26996e+00  5.66159e+00
       C  5.79254e+00  1.47974e+01  1.42350e+01
       C  6.10578e+00  1.09237e+00  1.17385e+01
       C  2.05812e+00  1.25660e+01  2.47930e+00
       C  2.12708e+00  2.60225e+01  5.81471e+00
       H  5.18064e+00  1.62516e+01  1.55852e+01
       H  6.44000e+00  2.29410e+00  1.00396e+01
       H  1.76436e+00  1.22036e+01  5.18193e-01
       H  2.02539e+00  2.49935e+01  7.56936e+00
       H  4.93059e+00  1.55210e+01  1.23528e+01
       H  6.73249e+00  2.06597e+00  1.34262e+01
       H  3.39440e+00  1.09957e+01  3.08376e+00
       H  1.53175e+00  2.47333e+01  4.35517e+00
       H  7.88889e+00  1.49691e+01  1.41203e+01
       H  4.03132e+00  8.35305e-01  1.20895e+01
       H  4.12066e-01  1.25123e+01  3.75916e+00
       H  4.13995e+00  2.63118e+01  5.20240e+00
       C  3.63868e+00  8.02727e+00  1.24029e+01
       C  8.36738e+00  2.14299e+01  1.35044e+01
       C  4.63518e+00  1.89145e+01  5.04627e+00
       C -4.06563e-01  5.49772e+00  3.86158e+00
       C  4.74992e+00  1.04390e+01  1.23313e+01
       C  7.39374e+00  2.39372e+01  1.36440e+01
       C  3.48028e+00  1.64616e+01  4.97213e+00
       C  6.97980e-01  3.09712e+00  3.65387e+00
       O  5.80260e+00  6.94753e+00  3.48491e+00
       O  1.07539e+01  2.03502e+01  5.05076e+00
       O  2.21565e+00  2.03975e+01  1.39069e+01
       O -3.74010e+00  6.83045e+00  1.20723e+01
       H  5.89901e+00  7.92617e+00  5.02968e+00
       H  1.13072e+01  2.07929e+01  3.32987e+00
       H  1.70969e+00  1.96467e+01  1.23386e+01
       H -3.42368e+00  5.78459e+00  1.36249e+01
       H  6.29410e+00  5.12142e+00  3.91079e+00
       H  1.06195e+01  1.84498e+01  4.92789e+00
       H  1.72740e+00  2.21709e+01  1.37654e+01
       H -3.37551e+00  8.63442e+00  1.24301e+01
96
# CELL(abcABC):   13.49113    27.05389    18.12247    90.00000   107.33000    90.00000  Step:           3  Bead:       0 positions{atomic_unit}  cell{atomic_unit}
       N -7.01266e-01  1.31464e+01  1.16351e+01
       N -2.71560e-01  2.66244e+01  1.43146e+01
       N  9.04183e+00  1.39214e+01  5.66212e+00
       N  8.72858e+00  3.99297e-01  3.08109e+00
       O -2.09996e+00  1.18839e+01  1.30901e+01
       O  1.07710e+00  2.52925e+01  1.28356e+01
       O  1.05470e+01  1.51160e+01  4.13735e+00
       O  7.48846e+00  1.88379e+00  4.69408e+00
       O -3.04620e-01  1.54774e+01  1.20767e+01
       O -9.90329e-01  1.77597e+00  1.35665e+01
       O  8.58175e+00  1.15596e+01  5.20590e+00
       O  9.21067e+00  2.51913e+01  3.67099e+00
       O  8.46671e-02  1.22793e+01  9.47578e+00
       O -9.65448e-01  2.58034e+01  1.65074e+01
       O  8.05443e+00  1.50765e+01  7.53742e+00
       O  9.24536e+00  1.27030e+00  9.21516e-01
       N  5.64632e+00  1.07017e+01  9.89958e+00
       N  6.61119e+00  2.40892e+01  1.60795e+01
       N  2.43818e+00  1.62159e+01  7.41902e+00
       N  1.81557e+00  2.98252e+00  1.30915e+00
       H  6.86779e+00  1.20611e+01  9.11839e+00
       H  5.38268e+00  2.53981e+01  1.69025e+01
       H  1.48408e+00  1.45898e+01  8.22077e+00
       H  2.63204e+00  1.40486e+00  3.20162e-01
       N  5.13309e+00  8.51586e+00  8.65110e+00
       N  6.98717e+00  2.18817e+01  1.72917e+01
       N  2.89314e+00  1.84177e+01  8.71306e+00
       N  1.34735e+00  5.21029e+00  1.30475e-01
       N  3.87257e+00  6.94502e+00  1.00580e+01
       N  8.21415e+00  2.03751e+01  1.59217e+01
       N  4.09302e+00  2.00496e+01  7.26348e+00
       N  6.97827e-02  6.73698e+00  1.57119e+00
       C  2.52730e+00  7.26825e+00  1.46682e+01
       C  9.24210e+00  2.05283e+01  1.12112e+01
       C  5.80114e+00  1.98261e+01  2.88331e+00
       C -1.78994e+00  6.26289e+00  5.94238e+00
       H  1.75657e+00  5.40395e+00  1.49215e+01
       H  1.01086e+01  1.86141e+01  1.09379e+01
       H  6.66874e+00  2.16988e+01  2.57545e+00
       H  1.09688e+01  8.23378e+00  6.21624e+00
       N  2.81545e+00  8.76380e+00  1.67201e+01
       N  9.07422e+00  2.21168e+01  9.25276e+00
       N  5.66537e+00  1.83356e+01  8.06408e-01
       N -1.85125e+00  4.55117e+00  7.76239e+00
       H  7.69225e+00  7.83863e+00  1.11355e+00
       H  9.93548e+00  2.13773e+01  7.63096e+00
       H  8.84592e-01  1.91482e+01  1.63822e+01
       H -2.77015e+00  5.23710e+00  9.41642e+00
       C  3.81832e+00  1.12068e+01  1.66843e+01
       C  8.26074e+00  2.46342e+01  9.39884e+00
       C  4.54951e+00  1.60735e+01  6.42046e-01
       C -7.05758e-01  2.17424e+00  7.78741e+00
       H  9.39504e+00  1.22033e+01  1.21392e+00
       H  8.38787e+00  2.56535e+01  7.64367e+00
       H -8.09892e-01  1.54567e+01  1.60421e+01
       H -9.14522e-01  1.10428e+00  9.54369e+00
       C  4.75155e+00  1.21611e+01  1.44596e+01
       C  7.25242e+00  2.55926e+01  1.15997e+01
       C  3.30117e+00  1.49948e+01  2.70450e+00
       C  5.85202e-01  1.26956e+00  5.65852e+00
       C  5.79219e+00  1.47952e+01  1.42385e+01
       C  6.10593e+00  1.09087e+00  1.17404e+01
       C  2.06226e+00  1.25642e+01  2.48194e+00
       C  2.13036e+00  2.60246e+01  5.81157e+00
       H  5.18505e+00  1.62489e+01  1.55815e+01
       H  6.44170e+00  2.30571e+00  1.00557e+01
       H  1.76447e+00  1.22096e+01  5.20489e-01
       H  2.02409e+00  2.49878e+01  7.56396e+00
       H  4.94680e+00  1.55234e+01  1.23604e+01
       H  6.72789e+00  2.08279e+00  1.34378e+01
       H  3.38989e+00  1.10205e+01  3.08131e+00
       H  1.51364e+00  2.47177e+01  4.34628e+00
       H  7.88484e+00  1.49581e+01  1.41157e+01
       H  4.04647e+00  8.40190e-01  1.20902e+01
       H  3.96019e-01  1.25181e+01  3.77487e+00
       H  4.12393e+00  2.63265e+01  5.20868e+00
       C  3.63881e+00  8.02737e+00  1.24030e+01
       C  8.36614e+00  2.14336e+01  1.35033e+01
       C  4.63194e+00  1.89100e+01  5.04947e+00
       C -4.04985e-01  5.49846e+00  3.86353e+00
       C  4.75134e+00  1.04402e+01  1.23318e+01
       C  7.39109e+00  2.39369e+01  1.36452e+01
       C  3.47902e+00  1.64662e+01  4.97717e+00
       C  6.99773e-01  3.09295e+00  3.65885e+00
       O  5.80249e+00  6.94554e+00  3.48433e+00
       O  1.07546e+01  2.03502e+01  5.04842e+00
       O  2.21376e+00  2.03965e+01  1.39050e+01
       O -3.74289e+00  6.82712e+00  1.20686e+01
       H  5.88965e+00  7.93783e+00  5.03905e+00
       H  1.13138e+01  2.08063e+01  3.33631e+00
       H  1.69691e+00  1.96246e+01  1.22985e+01
       H -3.42445e+00  5.78152e+00  1.36244e+01
       H  6.29513e+00  5.12328e+00  3.90286e+00
       H  1.06144e+01  1.84550e+01  4.91271e+00
       H  1.72395e+00  2.21774e+01  1.37857e+01
       H -3.37534e+00  8.62603e+00  1.24442e+01
96
# CELL(abcABC):   13.49113    27.05389    18.12247    90.00000   107.33000    90.00000  Step:           4  Bead:       0 positions{atomic_unit}  cell{atomic_unit}
       N -7.00169e-01  1.31518e+01  1.16296e+01
       N -2.71396e-01  2.66264e+01  1.43142e+01
       N  9.04198e+00  1.39215e+01  5.66394e+00
       N  8.72901e+00  3.98961e-01  3.08215e+00
       O -2.10167e+00  1.18830e+01  1.30920e+01
       O  1.07618e+00  2.52926e+01  1.28373e+01
       O  1.05498e+01  1.51126e+01  4.13569e+00
       O  7.48695e+00  1.88724e+00  4.69356e+00
       O -3.04283e-01  1.54757e+01  1.20813e+01
       O -9.92766e-01  1.77531e+00  1.35687e+01
       O  8.57983e+00  1.15601e+01  5.20564e+00
       O  9.20826e+00  2.51910e+01  3.67408e+00
       O  8.31145e-02  1.22808e+01  9.47561e+00
       O -9.66475e-01  2.58042e+01  1.65071e+01
       O  8.05865e+00  1.50763e+01  7.53785e+00
       O  9.24607e+00  1.27124e+00  9.26243e-01
       N  5.64521e+00  1.07040e+01  9.89823e+00
       N  6.61250e+00  2.40875e+01  1.60769e+01
       N  2.44003e+00  1.62131e+01  7.42113e+00
       N  1.81238e+00  2.98260e+00  1.30522e+00
       H  6.84998e+00  1.20601e+01  9.11925e+00
       H  5.38129e+00  2.54040e+01  1.69020e+01
       H  1.48034e+00  1.46201e+01  8.21417e+00
       H  2.64291e+00  1.40971e+00  3.30037e-01
       N  5.13493e+00  8.51675e+00  8.65130e+00
       N  6.98615e+00  2.18873e+01  1.72931e+01
       N  2.89509e+00  1.84183e+01  8.70795e+00
       N  1.34422e+00  5.20779e+00  1.28680e-01
       N  3.86909e+00  6.94236e+00  1.00583e+01
       N  8.21804e+00  2.03739e+01  1.59199e+01
       N  4.08726e+00  2.00520e+01  7.26372e+00
       N  7.05727e-02  6.73562e+00  1.56942e+00
       C  2.52997e+00  7.26607e+00  1.46694e+01
       C  9.24757e+00  2.05288e+01  1.12085e+01
       C  5.80215e+00  1.98234e+01  2.88479e+00
       C -1.79113e+00  6.26308e+00  5.94424e+00
       H  1.76142e+00  5.41716e+00  1.49324e+01
       H  1.01156e+01  1.86192e+01  1.09454e+01
       H  6.64436e+00  2.16898e+01  2.57444e+00
       H  1.09610e+01  8.22072e+00  6.19407e+00
       N  2.82003e+00  8.76370e+00  1.67226e+01
       N  9.07508e+00  2.21180e+01  9.25119e+00
       N  5.66510e+00  1.83382e+01  8.04990e-01
       N -1.85734e+00  4.55064e+00  7.76259e+00
       H  7.68409e+00  7.83538e+00  1.11087e+00
       H  9.92519e+00  2.13733e+01  7.63523e+00
       H  8.90115e-01  1.91614e+01  1.63687e+01
       H -2.76864e+00  5.22480e+00  9.41036e+00
       C  3.81608e+00  1.12044e+01  1.66895e+01
       C  8.26364e+00  2.46341e+01  9.40023e+00
       C  4.55185e+00  1.60732e+01  6.43053e-01
       C -7.09033e-01  2.17205e+00  7.78629e+00
       H  9.40173e+00  1.21956e+01  1.20322e+00
       H  8.36896e+00  2.56554e+01  7.64523e+00
       H -8.02479e-01  1.54531e+01  1.60253e+01
       H -9.26082e-01  1.09796e+00  9.53872e+00
       C  4.75834e+00  1.21630e+01  1.44575e+01
       C  7.25937e+00  2.55906e+01  1.15952e+01
       C  3.30400e+00  1.49951e+01  2.70508e+00
       C  5.82985e-01  1.26967e+00  5.65479e+00
       C  5.79191e+00  1.47927e+01  1.42415e+01
       C  6.10581e+00  1.09014e+00  1.17427e+01
       C  2.06871e+00  1.25607e+01  2.48517e+00
       C  2.13329e+00  2.60269e+01  5.80794e+00
       H  5.18589e+00  1.62454e+01  1.55806e+01
       H  6.44572e+00  2.30946e+00  1.00764e+01
       H  1.75656e+00  1.22108e+01  5.17089e-01
       H  2.02039e+00  2.49874e+01  7.56184e+00
       H  4.96766e+00  1.55216e+01  1.23701e+01
       H  6.72277e+00  2.09990e+00  1.34523e+01
       H  3.37905e+00  1.10447e+01  3.07871e+00
       H  1.49507e+00  2.46978e+01  4.33482e+00
       H  7.88180e+00  1.49431e+01  1.41114e+01
       H  4.06324e+00  8.48591e-01  1.20855e+01
       H  3.81531e-01  1.25226e+01  3.78908e+00
       H  4.10522e+00  2.63428e+01  5.21951e+00
       C  3.64020e+00  8.02990e+00  1.24013e+01
       C  8.36475e+00  2.14377e+01  1.35021e+01
       C  4.62818e+00  1.89057e+01  5.05332e+00
       C -4.02795e-01  5.49822e+00  3.86626e+00
       C  4.75409e+00  1.04414e+01  1.23314e+01
       C  7.38745e+00  2.39368e+01  1.36474e+01
       C  3.47782e+00  1.64705e+01  4.98384e+00
       C  7.01881e-01  3.08760e+00  3.66254e+00
       O  5.80134e+00  6.94229e+00  3.48334e+00
       O  1.07564e+01  2.03505e+01  5.04576e+00
       O  2.21166e+00  2.03957e+01  1.39028e+01
       O -3.74566e+00  6.82418e+00  1.20652e+01
       H  5.87163e+00  7.94790e+00  5.04742e+00
       H  1.13205e+01  2.08211e+01  3.34681e+00
       H  1.68510e+00  1.96032e+01  1.22610e+01
       H -3.42692e+00  5.78170e+00  1.36245e+01
       H  6.29097e+00  5.12816e+00  3.89568e+00
       H  1.06137e+01  1.84611e+01  4.89807e+00
       H  1.72110e+00  2.21839e+01  1.38061e+01
       H -3.37360e+00  8.61907e+00  1.24571e+01
96
# CELL(abcABC):   13.49113    27.05389    18.12247    90.00000   107.33000    90.00000  Step:           5  Bead:       0 positions{atomic_unit}  cell{atomic_unit}
       N -7.00139e-01  1.31574e+01  1.16234e+01
       N -2.71386e-01  2.66276e+01  1.43140e+01
       N  9.04305e+00  1.39217e+01  5.66481e+00
       N  8.72936e+00  3.97467e-01  3.08384e+00
       O -2.10413e+00  1.18828e+01  1.30937e+01
       O  1.07682e+00  2.52939e+01  1.28390e+01
       O  1.05533e+01  1.51087e+01  4.13484e+00
       O  7.48718e+00  1.88973e+00  4.69149e+00
       O -3.03632e-01  1.54747e+01  1.20857e+01
       O -9.93893e-01  1.77490e+00  1.35716e+01
       O  8.57753e+00  1.15608e+01  5.20715e+00
       O  9.20507e+00  2.51897e+01  3.67751e+00
       O  8.09663e-02  1.22829e+01  9.47728e+00
       O -9.67314e-01  2.58058e+01  1.65066e+01
       O  8.06351e+00  1.50760e+01  7.53816e+00
       O  9.24697e+00  1.27197e+00  9.29306e-01
       N  5.64511e+00  1.07052e+01  9.89750e+00
       N  6.61341e+00  2.40877e+01  1.60731e+01
       N  2.44270e+00  1.62105e+01  7.42198e+00
       N  1.80792e+00  2.98326e+00  1.30070e+00
       H  6.82914e+00  1.20545e+01  9.12332e+00
       H  5.38479e+00  2.54122e+01  1.69018e+01
       H  1.47966e+00  1.46546e+01  8.20680e+00
       H  2.65720e+00  1.41948e+00  3.34270e-01
       N  5.13561e+00  8.51661e+00  8.65014e+00
       N  6.98441e+00  2.18924e+01  1.72938e+01
       N  2.89581e+00  1.84190e+01  8.70199e+00
       N  1.34135e+00  5.20443e+00  1.26219e-01
       N  3.86467e+00  6.93959e+00  1.00588e+01
       N  8.22195e+00  2.03731e+01  1.59182e+01
       N  4.08132e+00  2.00539e+01  7.26406e+00
       N  7.07785e-02  6.73424e+00  1.56843e+00
       C  2.53343e+00  7.26359e+00  1.46717e+01
       C  9.25463e+00  2.05304e+01  1.12055e+01
       C  5.80106e+00  1.98209e+01  2.88585e+00
       C -1.79090e+00  6.26270e+00  5.94478e+00
       H  1.75871e+00  5.42508e+00  1.49415e+01
       H  1.01198e+01  1.86288e+01  1.09461e+01
       H  6.62397e+00  2.16845e+01  2.57409e+00
       H  1.09561e+01  8.20421e+00  6.17426e+00
       N  2.82435e+00  8.76304e+00  1.67236e+01
       N  9.07378e+00  2.21187e+01  9.25070e+00
       N  5.66525e+00  1.83413e+01  8.03195e-01
       N -1.86257e+00  4.54955e+00  7.76313e+00
       H  7.66732e+00  7.83233e+00  1.10791e+00
       H  9.91420e+00  2.13682e+01  7.63096e+00
       H  8.95639e-01  1.91782e+01  1.63527e+01
       H -2.76095e+00  5.21190e+00  9.41170e+00
       C  3.81486e+00  1.12036e+01  1.66948e+01
       C  8.26634e+00  2.46339e+01  9.40070e+00
       C  4.55335e+00  1.60735e+01  6.44609e-01
       C -7.12592e-01  2.17074e+00  7.78456e+00
       H  9.41109e+00  1.21904e+01  1.18891e+00
       H  8.34838e+00  2.56580e+01  7.64323e+00
       H -7.94466e-01  1.54457e+01  1.59982e+01
       H -9.40386e-01  1.09537e+00  9.53507e+00
       C  4.76549e+00  1.21656e+01  1.44569e+01
       C  7.26604e+00  2.55905e+01  1.15917e+01
       C  3.30904e+00  1.49952e+01  2.70595e+00
       C  5.80341e-01  1.27132e+00  5.65158e+00
       C  5.79142e+00  1.47903e+01  1.42439e+01
       C  6.10556e+00  1.08988e+00  1.17441e+01
       C  2.07409e+00  1.25558e+01  2.48904e+00
       C  2.13823e+00  2.60297e+01  5.80325e+00
       H  5.18133e+00  1.62389e+01  1.55831e+01
       H  6.44716e+00  2.31258e+00  1.00964e+01
       H  1.74504e+00  1.22089e+01  5.09503e-01
       H  2.01660e+00  2.49843e+01  7.56223e+00
       H  4.99212e+00  1.55198e+01  1.23853e+01
       H  6.72100e+00  2.12201e+00  1.34651e+01
       H  3.36880e+00  1.10632e+01  3.07408e+00
       H  1.47638e+00  2.46840e+01  4.32241e+00
       H  7.88106e+00  1.49275e+01  1.41084e+01
       H  4.08016e+00  8.51722e-01  1.20759e+01
       H  3.69727e-01  1.25305e+01  3.79852e+00
       H  4.08346e+00  2.63619e+01  5.23292e+00
       C  3.64218e+00  8.03212e+00  1.24000e+01
       C  8.36260e+00  2.14432e+01  1.35004e+01
       C  4.62471e+00  1.89022e+01  5.05664e+00
       C -3.99632e-01  5.49708e+00  3.86816e+00
       C  4.75451e+00  1.04433e+01  1.23315e+01
       C  7.38270e+00  2.39363e+01  1.36502e+01
       C  3.47733e+00  1.64728e+01  4.99013e+00
       C  7.04423e-01  3.08303e+00  3.66560e+00
       O  5.80034e+00  6.93860e+00  3.48328e+00
       O  1.07581e+01  2.03505e+01  5.04421e+00
       O  2.20969e+00  2.03950e+01  1.39001e+01
       O -3.75045e+00  6.82052e+00  1.20618e+01
       H  5.85385e+00  7.95513e+00  5.05397e+00
       H  1.13292e+01  2.08374e+01  3.36095e+00
       H  1.67677e+00  1.95830e+01  1.22275e+01
       H -3.42922e+00  5.78252e+00  1.36216e+01
       H  6.28679e+00  5.13609e+00  3.88577e+00
       H  1.06155e+01  1.84704e+01  4.88276e+00
       H  1.71372e+00  2.21887e+01  1.38289e+01
       H -3.37146e+00  8.60726e+00  1.24709e+01
96
# CELL(abcABC):   13.49113    27.05389    18.12247    90.00000   107.33000    90.00000  Step:           6  Bead:       0 positions{atomic_unit}  cell{atomic_unit}
       N -7.01920e-01  1.31643e+01  1.16176e+01
       N -2.70948e-01  2.66291e+01  1.43141e+01
       N  9.04461e+00  1.39219e+01  5.66575e+00
       N  8.72978e+00  3.97260e-01  3.08533e+00
       O -2.10614e+00  1.18826e+01  1.30947e+01
       O  1.07748e+00  2.52948e+01  1.28400e+01
       O  1.05567e+01  1.51063e+01  4.13397e+00
       O  7.48760e+00  1.89330e+00  4.68846e+00
       O -3.03550e-01  1.54727e+01  1.20911e+01
       O -9.95869e-01  1.77330e+00  1.35750e+01
       O  8.57589e+00  1.15613e+01  5.20826e+00
       O  9.20168e+00  2.51894e+01  3.68070e+00
       O  7.85709e-02  1.22850e+01  9.48000e+00
       O -9.68086e-01  2.58075e+01  1.65054e+01
       O  8.06934e+00  1.50754e+01  7.53878e+00
       O  9.24759e+00  1.27352e+00  9.32340e-01
       N  5.64501e+00  1.07059e+01  9.89703e+00
       N  6.61367e+00  2.40882e+01  1.60684e+01
       N  2.44542e+00  1.62086e+01  7.42262e+00
       N  1.80380e+00  2.98350e+00  1.29647e+00
       H  6.80851e+00  1.20481e+01  9.12055e+00
       H  5.38853e+00  2.54199e+01  1.69007e+01
       H  1.47551e+00  1.46895e+01  8.19765e+00
       H  2.67043e+00  1.42995e+00  3.41371e-01