crystal_data/ABUJUF/11/struct.in (written by ASE) 

96 	 atoms 
4  atom types
0.0      7.1391999999999998  xlo xhi
0.0                 14.3163  ylo yhi
0.0      9.1546616000935739  zlo zhi
                      0     -2.8566188033708926                       0  xy xz yz


Atoms 

     1   3    -0.37391099999999999      6.9498300000000004      6.1639200000000001
     2   3    -0.14472599999999999      14.087999999999999                 7.57639
     3   3      4.7841500000000003      7.3666799999999997                 2.99281
     4   3      4.6154700000000002     0.21215100000000001                 1.63028
     5   4     -1.1077999999999999      6.2875800000000002      6.9248599999999998
     6   4     0.57094599999999995                 13.3848      6.7913199999999998
     7   4      5.5760199999999998      8.0039499999999997      2.1926399999999999
     8   4      3.9668399999999999     0.99244900000000003      2.4825900000000001
     9   4    -0.16005900000000001      8.1914800000000003      6.3848799999999999
    10   4               -0.521621     0.94098599999999999                 7.17408
    11   4      4.5434999999999999      6.1189799999999996      2.7557100000000001
    12   4      4.8781800000000004      13.330399999999999      1.9376899999999999
    13   4    0.046223599999999997                 6.49655      5.0143000000000004
    14   4    -0.50944599999999995                 13.6533      8.7369400000000006
    15   4      4.2559500000000003      7.9773800000000001      3.9853299999999998
    16   4      4.8931699999999996     0.67170700000000005                0.481373
    17   3      2.9888300000000001      5.6610899999999997      5.2432699999999999
    18   3      3.4975999999999998                 12.7507      8.5124499999999994
    19   3                 1.28986      8.5843900000000009      3.9232900000000002
    20   3     0.96593600000000002                 1.57897     0.69897100000000001
    21   1                  3.6534      6.3775199999999996                 4.82369
    22   1      2.8624100000000001                 13.4397      8.9445099999999993
    23   1     0.79016500000000001      7.6807999999999996      4.3715700000000002
    24   1      1.3814500000000001     0.74760199999999999                0.165405
    25   3      2.7159200000000001      4.5071599999999998      4.5750000000000002
    26   3      3.6968299999999998      11.571899999999999      9.1512200000000004
    27   3      1.5288999999999999      9.7449899999999996                 4.61449
    28   3     0.71759899999999999      2.7592599999999998    0.069965700000000006
    29   3      2.0536599999999998                 3.67815      5.3213800000000004
    30   3      4.3417399999999997      10.782299999999999      8.4294100000000007
    31   3                 2.17313                  10.606                 3.84511
    32   3    0.034097200000000001      3.5662400000000001     0.83457400000000004
    33   2                 1.33284      3.8485800000000001      7.7622400000000003
    34   2      4.8839399999999999      10.860900000000001      5.9350100000000001
    35   2                 3.06677      10.498200000000001                 1.52502
    36   2    -0.94239600000000001      3.3142399999999999      3.1402000000000001
    37   1     0.91567399999999999      2.8300299999999998      7.8815200000000001
    38   1                -1.80419      9.8466500000000003      5.7735900000000004
    39   1      3.5533199999999998      11.486800000000001                  1.3731
    40   1                 5.81989                 4.35853                 3.30972
    41   3                 1.48271      4.6404199999999998      8.8457899999999992
    42   3      4.7992100000000004                 11.7036      4.8996599999999999
    43   3                 2.99742      9.7028999999999996     0.42802499999999999
    44   3    -0.97413400000000006      2.4077099999999998      4.1104500000000002
    45   1                 4.06792                 4.16568     0.59814199999999995
    46   1      5.2581899999999999      11.321400000000001                  4.0263
    47   1     0.46631499999999998                 10.1089      8.6929400000000001
    48   1                -1.46977      2.7891499999999998      4.9838699999999996
    49   2                 2.02372                 5.93201      8.8214299999999994
    50   2      4.3659600000000003                 13.0379      4.9743399999999998
    51   2      2.4041700000000001      8.5060900000000004     0.34111399999999997
    52   2    -0.37043799999999999                 1.15323      4.1203399999999997
    53   1      4.9672999999999998      6.4665800000000004     0.64673599999999998
    54   1      4.4574199999999999                 13.5792      4.0324900000000001
    55   1    -0.44923299999999999      8.1738199999999992      8.4901999999999997
    56   1    -0.46191199999999999     0.59487000000000001      5.0560700000000001
    57   2      2.5076499999999999      6.4358899999999997      7.6543000000000001
    58   2                 3.82667      13.546200000000001                 6.14114
    59   2                 1.74454      7.9361499999999996      1.4317299999999999
    60   2                0.310782     0.67372799999999999      2.9995699999999998
    61   2      3.0650900000000001      7.8328499999999996      7.5284300000000002
    62   2      3.2295400000000001     0.57929299999999995      6.2092000000000001
    63   2                 1.08701      6.6512000000000002                 1.31128
    64   2                 1.12601                 13.7681      3.0784400000000001
    65   1      2.7388699999999999      8.6036699999999993      8.2533799999999999
    66   1                 3.40517      1.1941900000000001                  5.2961
    67   1     0.93651700000000004      6.4527700000000001     0.27095000000000002
    68   1      1.0678000000000001                 13.2333      4.0164400000000002
    69   1      2.6028699999999998      8.2090200000000006                 6.52644
    70   1      3.5672299999999999                 1.08169      7.0946699999999998
    71   1      1.7955399999999999                 5.79908      1.6358200000000001
    72   1     0.82602799999999998      13.095000000000001      2.3068499999999998
    73   1      4.1785600000000001      7.9311100000000003      7.4726400000000002
    74   1                 2.12033     0.43966699999999997      6.3946199999999997
    75   1     0.23269100000000001      6.6103800000000001      1.9691099999999999
    76   1      2.1953900000000002                 13.9116                 2.75129
    77   2                 1.92526      4.2484200000000003      6.5648400000000002
    78   2      4.4287900000000002                 11.3362      7.1461300000000003
    79   2      2.4546199999999998                 10.0129      2.6673399999999998
    80   2    -0.21568100000000001      2.9098799999999998      2.0411999999999999
    81   2      2.5110000000000001      5.5220599999999997                 6.52522
    82   2                 3.91615      12.666399999999999      7.2195400000000003
    83   2      1.8412599999999999      8.7062200000000001      2.6272199999999999
    84   2     0.36717499999999997                 1.64273      1.9287799999999999
    85   4      3.0706799999999999                 3.67808                 1.84534
    86   4                 5.69001      10.767799999999999                 2.67536
    87   4                 1.17337      10.795999999999999      7.3625800000000003
    88   4                -1.97898                 3.61734      6.3918900000000001
    89   1      3.1347900000000002      4.1848700000000001      2.6546599999999998
    90   1      5.9795999999999996      10.989699999999999                 1.75701
    91   1     0.91537100000000005                 10.4099      6.5554100000000002
    92   1                 -1.8089      3.0736699999999999      7.2055300000000004
    93   1      3.3227899999999999      2.7084800000000002      2.0753300000000001
    94   1                 5.62066      9.7616099999999992      2.6241500000000002
    95   1     0.92047000000000001      11.731400000000001      7.2677699999999996
    96   1     -1.7791600000000001      4.5779699999999997      6.5642899999999997
