
     Program PWSCF v.7.1 starts on  5Sep2022 at 15:10:57 

     This program is part of the open-source Quantum ESPRESSO suite
     for quantum simulation of materials; please cite
         "P. Giannozzi et al., J. Phys.:Condens. Matter 21 395502 (2009);
         "P. Giannozzi et al., J. Phys.:Condens. Matter 29 465901 (2017);
         "P. Giannozzi et al., J. Chem. Phys. 152 154105 (2020);
          URL http://www.quantum-espresso.org", 
     in publications or presentations arising from this work. More details at
     http://www.quantum-espresso.org/quote

     Parallel version (MPI), running on     1 processors

     MPI processes distributed on     1 nodes
     8512 MiB available memory on the printing compute node when the environment starts

     Waiting for input...
     Reading input from standard input
Warning: card &CELL ignored
Warning: card / ignored

     Current dimensions of program PWSCF are:
     Max number of different atomic species (ntypx) = 10
     Max number of k-points (npk) =  40000
     Max angular momentum in pseudopotentials (lmaxx) =  4
     file O.pbe-n-kjpaw_psl.1.0.0.UPF: wavefunction(s)  2S 2P renormalized

     gamma-point specific algorithms are used

     Subspace diagonalization in iterative solution of the eigenvalue problem:
     a serial algorithm will be used


     G-vector sticks info
     --------------------
     sticks:   dense  smooth     PW     G-vecs:    dense   smooth      PW
     Sum       11913   11913   2965               979259   979259  122321

     Using Slab Decomposition



     bravais-lattice index     =            1
     lattice parameter (alat)  =      24.9822  a.u.
     unit-cell volume          =   15591.6104 (a.u.)^3
     number of atoms/cell      =            2
     number of atomic types    =            2
     number of electrons       =         7.00
     number of Kohn-Sham states=            8
     kinetic-energy cutoff     =      60.0000  Ry
     charge density cutoff     =     240.0000  Ry
     scf convergence threshold =      1.0E-10
     mixing beta               =       0.5000
     number of iterations used =            8  plain     mixing
     energy convergence thresh.=      1.0E-04
     force convergence thresh. =      1.0E-03
     Exchange-correlation= SLA  PW   PBX  PBC
                           (   1   4   3   4   0   0   0)
     nstep                     =           50


     celldm(1)=  24.982179  celldm(2)=   0.000000  celldm(3)=   0.000000
     celldm(4)=   0.000000  celldm(5)=   0.000000  celldm(6)=   0.000000

     crystal axes: (cart. coord. in units of alat)
               a(1) = (   1.000000   0.000000   0.000000 )  
               a(2) = (   0.000000   1.000000   0.000000 )  
               a(3) = (   0.000000   0.000000   1.000000 )  

     reciprocal axes: (cart. coord. in units 2 pi/alat)
               b(1) = (  1.000000  0.000000  0.000000 )  
               b(2) = (  0.000000  1.000000  0.000000 )  
               b(3) = (  0.000000  0.000000  1.000000 )  


     PseudoPot. # 1 for H  read from file:
     ../../pseudos/H.pbe-tm-new-gipaw-dc.UPF
     MD5 check sum: 0e5abdcbf773fd5bd1c97111569d22ab
     Pseudo is Norm-conserving, Zval =  1.0
     Generated by new atomic code, or converted to UPF format
     Using radial grid of 1261 points,  0 beta functions with: 

     PseudoPot. # 2 for O  read from file:
     ../../pseudos/O.pbe-n-kjpaw_psl.1.0.0.UPF
     MD5 check sum: 23191a2bbe718536eb1a23b5d2139378
     Pseudo is Projector augmented-wave + core cor, Zval =  6.0
     Generated using "atomic" code by A. Dal Corso  v.6.1 svn rev. 13369
     Shape of augmentation charge: PSQ
     Using radial grid of 1095 points,  4 beta functions with: 
                l(1) =   0
                l(2) =   0
                l(3) =   1
                l(4) =   1
     Q(r) pseudized with 0 coefficients 


     atomic species   valence    mass     pseudopotential
        H              1.00     1.00800     H ( 1.00)
        O              6.00    15.99900     O ( 1.00)

     No symmetry found



   Cartesian axes

     site n.     atom                  positions (alat units)
         1           H   tau(   1) = (   0.0000000   0.0000000   0.0000000  )
         2           O   tau(   2) = (   0.0075643   0.0000000   0.0000000  )

     -------------------------------------------------
     Parameters for Dispersion (Grimme-D2) Correction:
     -------------------------------------------------
       atom      VdW radius       C_6     

        H          1.892          4.857
        O          2.536         24.284

     number of k points=     1  Marzari-Vanderbilt smearing, width (Ry)=  0.0200
                       cart. coord. in units 2pi/alat
        k(    1) = (   0.0000000   0.0000000   0.0000000), wk =   2.0000000

     Dense  grid:   489630 G-vectors     FFT dimensions: ( 125, 125, 125)

     Estimated max dynamical RAM per process >     700.76 MB

     Initial potential from superposition of free atoms

     starting charge       6.5000, renormalised to       7.0000

     negative rho (up, down):  9.644E-03 0.000E+00
     Starting wfcs are    6 randomized atomic wfcs +    2 random wfcs
     Checking if some PAW data can be deallocated... 

     total cpu time spent up to now is        2.6 secs

     Self-consistent Calculation

     iteration #  1     ecut=    60.00 Ry     beta= 0.50
     Davidson diagonalization with overlap
     ethr =  1.00E-02,  avg # of iterations =  7.0

     negative rho (up, down):  1.464E-02 0.000E+00

     total cpu time spent up to now is        5.5 secs

     total energy              =       6.30919754 Ry
     estimated scf accuracy    <       1.88007692 Ry

     iteration #  2     ecut=    60.00 Ry     beta= 0.50
     Davidson diagonalization with overlap
     ethr =  1.00E-02,  avg # of iterations =  4.0

     negative rho (up, down):  1.575E-02 0.000E+00

     total cpu time spent up to now is        7.5 secs

     total energy              =       6.05675602 Ry
     estimated scf accuracy    <       0.04357052 Ry

     iteration #  3     ecut=    60.00 Ry     beta= 0.50
     Davidson diagonalization with overlap
     ethr =  6.22E-04,  avg # of iterations =  6.0

     negative rho (up, down):  1.573E-02 0.000E+00

     total cpu time spent up to now is        9.8 secs

     total energy              =       6.04015055 Ry
     estimated scf accuracy    <       0.06699206 Ry

     iteration #  4     ecut=    60.00 Ry     beta= 0.50
     Davidson diagonalization with overlap
     ethr =  6.22E-04,  avg # of iterations =  1.0

     negative rho (up, down):  1.552E-02 0.000E+00

     total cpu time spent up to now is       11.6 secs

     total energy              =       6.03712397 Ry
     estimated scf accuracy    <       0.00661117 Ry

     iteration #  5     ecut=    60.00 Ry     beta= 0.50
     Davidson diagonalization with overlap
     ethr =  9.44E-05,  avg # of iterations =  3.0

     negative rho (up, down):  1.556E-02 0.000E+00

     total cpu time spent up to now is       13.7 secs

     total energy              =       6.03505086 Ry
     estimated scf accuracy    <       0.01329628 Ry

     iteration #  6     ecut=    60.00 Ry     beta= 0.50
     Davidson diagonalization with overlap
     ethr =  9.44E-05,  avg # of iterations =  2.0

     negative rho (up, down):  1.576E-02 0.000E+00

     total cpu time spent up to now is       15.6 secs

     total energy              =       6.03542975 Ry
     estimated scf accuracy    <       0.00257645 Ry

     iteration #  7     ecut=    60.00 Ry     beta= 0.50
     Davidson diagonalization with overlap
     ethr =  3.68E-05,  avg # of iterations =  7.0

     negative rho (up, down):  1.577E-02 0.000E+00

     total cpu time spent up to now is       18.0 secs

     total energy              =       6.03510950 Ry
     estimated scf accuracy    <       0.00009160 Ry

     iteration #  8     ecut=    60.00 Ry     beta= 0.50
     Davidson diagonalization with overlap
     ethr =  1.31E-06,  avg # of iterations = 12.0

     negative rho (up, down):  1.576E-02 0.000E+00

     total cpu time spent up to now is       21.4 secs

     total energy              =       6.03500481 Ry
     estimated scf accuracy    <       0.00001849 Ry

     iteration #  9     ecut=    60.00 Ry     beta= 0.50
     Davidson diagonalization with overlap
     ethr =  2.64E-07,  avg # of iterations =  2.0

     negative rho (up, down):  1.577E-02 0.000E+00

     total cpu time spent up to now is       23.3 secs

     total energy              =       6.03500424 Ry
     estimated scf accuracy    <       0.00000880 Ry

     iteration # 10     ecut=    60.00 Ry     beta= 0.50
     Davidson diagonalization with overlap
     ethr =  1.26E-07,  avg # of iterations =  2.0

     negative rho (up, down):  1.577E-02 0.000E+00

     total cpu time spent up to now is       25.2 secs

     total energy              =       6.03500298 Ry
     estimated scf accuracy    <       0.00000552 Ry

     iteration # 11     ecut=    60.00 Ry     beta= 0.50
     Davidson diagonalization with overlap
     ethr =  7.88E-08,  avg # of iterations =  1.0

     negative rho (up, down):  1.578E-02 0.000E+00

     total cpu time spent up to now is       27.0 secs

     total energy              =       6.03500449 Ry
     estimated scf accuracy    <       0.00000362 Ry

     iteration # 12     ecut=    60.00 Ry     beta= 0.50
     Davidson diagonalization with overlap
     ethr =  5.17E-08,  avg # of iterations =  1.0

     negative rho (up, down):  1.578E-02 0.000E+00

     total cpu time spent up to now is       28.8 secs

     total energy              =       6.03500444 Ry
     estimated scf accuracy    <       0.00000070 Ry

     iteration # 13     ecut=    60.00 Ry     beta= 0.50
     Davidson diagonalization with overlap
     ethr =  1.00E-08,  avg # of iterations =  2.0

     negative rho (up, down):  1.578E-02 0.000E+00

     total cpu time spent up to now is       30.8 secs

     total energy              =       6.03500410 Ry
     estimated scf accuracy    <       0.00000008 Ry

     iteration # 14     ecut=    60.00 Ry     beta= 0.50
     Davidson diagonalization with overlap
     ethr =  1.17E-09,  avg # of iterations =  4.0

     negative rho (up, down):  1.578E-02 0.000E+00

     total cpu time spent up to now is       33.0 secs

     total energy              =       6.03500402 Ry
     estimated scf accuracy    <       0.00000023 Ry

     iteration # 15     ecut=    60.00 Ry     beta= 0.50
     Davidson diagonalization with overlap
     ethr =  1.17E-09,  avg # of iterations =  1.0

     negative rho (up, down):  1.578E-02 0.000E+00

     total cpu time spent up to now is       34.8 secs

     total energy              =       6.03500408 Ry
     estimated scf accuracy    <       0.00000016 Ry

     iteration # 16     ecut=    60.00 Ry     beta= 0.50
     Davidson diagonalization with overlap
     ethr =  1.17E-09,  avg # of iterations =  2.0

     negative rho (up, down):  1.578E-02 0.000E+00

     total cpu time spent up to now is       36.7 secs

     total energy              =       6.03500409 Ry
     estimated scf accuracy    <       0.00000004 Ry

     iteration # 17     ecut=    60.00 Ry     beta= 0.50
     Davidson diagonalization with overlap
     ethr =  5.94E-10,  avg # of iterations =  4.0

     negative rho (up, down):  1.578E-02 0.000E+00

     total cpu time spent up to now is       38.8 secs

     total energy              =       6.03500407 Ry
     estimated scf accuracy    <          4.7E-09 Ry

     iteration # 18     ecut=    60.00 Ry     beta= 0.50
     Davidson diagonalization with overlap
     ethr =  6.70E-11,  avg # of iterations =  2.0

     negative rho (up, down):  1.578E-02 0.000E+00

     total cpu time spent up to now is       40.7 secs

     total energy              =       6.03500407 Ry
     estimated scf accuracy    <          4.1E-09 Ry

     iteration # 19     ecut=    60.00 Ry     beta= 0.50
     Davidson diagonalization with overlap
     ethr =  5.79E-11,  avg # of iterations =  2.0

     negative rho (up, down):  1.578E-02 0.000E+00

     total cpu time spent up to now is       42.6 secs

     total energy              =       6.03500407 Ry
     estimated scf accuracy    <          6.3E-10 Ry

     iteration # 20     ecut=    60.00 Ry     beta= 0.50
     Davidson diagonalization with overlap
     ethr =  8.96E-12,  avg # of iterations =  4.0

     negative rho (up, down):  1.578E-02 0.000E+00

     total cpu time spent up to now is       44.7 secs

     total energy              =       6.03500407 Ry
     estimated scf accuracy    <          3.5E-10 Ry

     iteration # 21     ecut=    60.00 Ry     beta= 0.50
     Davidson diagonalization with overlap
     ethr =  5.00E-12,  avg # of iterations =  2.0

     negative rho (up, down):  1.578E-02 0.000E+00

     total cpu time spent up to now is       46.5 secs

     End of self-consistent calculation

          k = 0.0000 0.0000 0.0000 ( 61161 PWs)   bands (ev):

   -26.2829 -11.7603 -11.6389 -11.6389  -0.4500   0.2789   0.4384   0.4512

     the Fermi energy is   -11.5095 ev

!    total energy              =       6.03500406 Ry
     estimated scf accuracy    <          4.8E-11 Ry
     smearing contrib. (-TS)   =      -0.00372818 Ry
     internal energy E=F+TS    =       6.03873224 Ry

     The total energy is F=E-TS. E is the sum of the following terms:
     one-electron contribution =     -69.38484257 Ry
     hartree contribution      =      36.71084381 Ry
     xc contribution           =      -9.44716170 Ry
     ewald contribution        =      57.93625292 Ry
     Dispersion Correction     =      -0.00086624 Ry
     one-center paw contrib.   =      -9.77549398 Ry

     convergence has been achieved in  21 iterations

     negative rho (up, down):  1.578E-02 0.000E+00

     Forces acting on atoms (cartesian axes, Ry/au):

     atom    1 type  1   force =  -334.22133480   -0.00000024   -0.00000042
     atom    2 type  2   force =   334.22133480    0.00000024    0.00000042

     Total force =   334.221335     Total SCF correction =     0.000002

     BFGS Geometry Optimization
     Energy error            =      0.0E+00 Ry
     Gradient error          =      3.3E+02 Ry/Bohr

     number of scf cycles    =   1
     number of bfgs steps    =   0

     energy             new  =       6.0350040647 Ry

     new trust radius        =       0.5000000000 bohr
     new conv_thr            =            1.0E-10 Ry


ATOMIC_POSITIONS (angstrom)
H             0.0000000000        0.0000000000        0.0000000000    0   0   0
O             0.3645886055        0.0000000000        0.0000000000    1   0   0



     Writing config-only to output data dir ./pwscf.save/
     NEW-OLD atomic charge density approx. for the potential

     negative rho (up, down):  1.812E-02 0.000E+00

     total cpu time spent up to now is       48.8 secs

     Self-consistent Calculation

     iteration #  1     ecut=    60.00 Ry     beta= 0.50
     Davidson diagonalization with overlap
     ethr =  1.00E-06,  avg # of iterations = 19.0

     negative rho (up, down):  1.173E-02 0.000E+00

     total cpu time spent up to now is       53.8 secs

     total energy              =     -38.00317900 Ry
     estimated scf accuracy    <       0.23293721 Ry

     iteration #  2     ecut=    60.00 Ry     beta= 0.50
     Davidson diagonalization with overlap
     ethr =  3.33E-03,  avg # of iterations =  1.0

     negative rho (up, down):  1.155E-02 0.000E+00

     total cpu time spent up to now is       55.5 secs

     total energy              =     -37.99430222 Ry
     estimated scf accuracy    <       0.03348844 Ry

     iteration #  3     ecut=    60.00 Ry     beta= 0.50
     Davidson diagonalization with overlap
     ethr =  4.78E-04,  avg # of iterations =  4.0

     negative rho (up, down):  1.165E-02 0.000E+00

     total cpu time spent up to now is       57.5 secs

     total energy              =     -38.02145992 Ry
     estimated scf accuracy    <       0.01409652 Ry

     iteration #  4     ecut=    60.00 Ry     beta= 0.50
     Davidson diagonalization with overlap
     ethr =  2.01E-04,  avg # of iterations =  1.0

     negative rho (up, down):  1.251E-02 0.000E+00

     total cpu time spent up to now is       59.2 secs

     total energy              =     -38.01412743 Ry
     estimated scf accuracy    <       0.01011603 Ry

     iteration #  5     ecut=    60.00 Ry     beta= 0.50
     Davidson diagonalization with overlap
     ethr =  1.45E-04,  avg # of iterations =  4.0

     negative rho (up, down):  1.234E-02 0.000E+00

     total cpu time spent up to now is       61.3 secs

     total energy              =     -38.01856229 Ry
     estimated scf accuracy    <       0.01274494 Ry

     iteration #  6     ecut=    60.00 Ry     beta= 0.50
     Davidson diagonalization with overlap
     ethr =  1.45E-04,  avg # of iterations =  1.0

     negative rho (up, down):  1.216E-02 0.000E+00

     total cpu time spent up to now is       63.0 secs

     total energy              =     -38.01684597 Ry
     estimated scf accuracy    <       0.00386441 Ry

     iteration #  7     ecut=    60.00 Ry     beta= 0.50
     Davidson diagonalization with overlap
     ethr =  5.52E-05,  avg # of iterations =  4.0

     negative rho (up, down):  1.231E-02 0.000E+00

     total cpu time spent up to now is       65.1 secs

     total energy              =     -38.01872364 Ry
     estimated scf accuracy    <       0.00022793 Ry

     iteration #  8     ecut=    60.00 Ry     beta= 0.50
     Davidson diagonalization with overlap
     ethr =  3.26E-06,  avg # of iterations =  4.0

     negative rho (up, down):  1.234E-02 0.000E+00

     total cpu time spent up to now is       67.3 secs

     total energy              =     -38.01881768 Ry
     estimated scf accuracy    <       0.00008045 Ry

     iteration #  9     ecut=    60.00 Ry     beta= 0.50
     Davidson diagonalization with overlap
     ethr =  1.15E-06,  avg # of iterations =  7.0

     negative rho (up, down):  1.234E-02 0.000E+00

     total cpu time spent up to now is       69.6 secs

     total energy              =     -38.01884891 Ry
     estimated scf accuracy    <       0.00000990 Ry

     iteration # 10     ecut=    60.00 Ry     beta= 0.50
     Davidson diagonalization with overlap
     ethr =  1.41E-07,  avg # of iterations =  2.0

     negative rho (up, down):  1.236E-02 0.000E+00

     total cpu time spent up to now is       71.5 secs

     total energy              =     -38.01885541 Ry
     estimated scf accuracy    <       0.00001454 Ry

     iteration # 11     ecut=    60.00 Ry     beta= 0.50
     Davidson diagonalization with overlap
     ethr =  1.41E-07,  avg # of iterations =  2.0

     negative rho (up, down):  1.237E-02 0.000E+00

     total cpu time spent up to now is       73.3 secs

     total energy              =     -38.01884535 Ry
     estimated scf accuracy    <       0.00002567 Ry

     iteration # 12     ecut=    60.00 Ry     beta= 0.50
     Davidson diagonalization with overlap
     ethr =  1.41E-07,  avg # of iterations =  1.0

     negative rho (up, down):  1.238E-02 0.000E+00

     total cpu time spent up to now is       75.1 secs

     total energy              =     -38.01884415 Ry
     estimated scf accuracy    <       0.00000846 Ry

     iteration # 13     ecut=    60.00 Ry     beta= 0.50
     Davidson diagonalization with overlap
     ethr =  1.21E-07,  avg # of iterations =  2.0

     negative rho (up, down):  1.238E-02 0.000E+00

     total cpu time spent up to now is       77.0 secs

     total energy              =     -38.01884540 Ry
     estimated scf accuracy    <       0.00000304 Ry

     iteration # 14     ecut=    60.00 Ry     beta= 0.50
     Davidson diagonalization with overlap
     ethr =  4.34E-08,  avg # of iterations =  2.0

     negative rho (up, down):  1.238E-02 0.000E+00

     total cpu time spent up to now is       79.1 secs

     total energy              =     -38.01884555 Ry
     estimated scf accuracy    <       0.00000273 Ry

     iteration # 15     ecut=    60.00 Ry     beta= 0.50
     Davidson diagonalization with overlap
     ethr =  3.90E-08,  avg # of iterations =  1.0

     negative rho (up, down):  1.238E-02 0.000E+00

     total cpu time spent up to now is       80.9 secs

     total energy              =     -38.01884552 Ry
     estimated scf accuracy    <       0.00000242 Ry

     iteration # 16     ecut=    60.00 Ry     beta= 0.50
     Davidson diagonalization with overlap
     ethr =  3.46E-08,  avg # of iterations =  1.0

     negative rho (up, down):  1.238E-02 0.000E+00

     total cpu time spent up to now is       82.6 secs

     total energy              =     -38.01884480 Ry
     estimated scf accuracy    <       0.00000216 Ry

     iteration # 17     ecut=    60.00 Ry     beta= 0.50
     Davidson diagonalization with overlap
     ethr =  3.09E-08,  avg # of iterations =  2.0

     negative rho (up, down):  1.238E-02 0.000E+00

     total cpu time spent up to now is       84.4 secs

     total energy              =     -38.01884453 Ry
     estimated scf accuracy    <       0.00000074 Ry

     iteration # 18     ecut=    60.00 Ry     beta= 0.50
     Davidson diagonalization with overlap
     ethr =  1.06E-08,  avg # of iterations =  4.0

     negative rho (up, down):  1.238E-02 0.000E+00

     total cpu time spent up to now is       86.5 secs

     total energy              =     -38.01884504 Ry
     estimated scf accuracy    <       0.00000016 Ry

     iteration # 19     ecut=    60.00 Ry     beta= 0.50
     Davidson diagonalization with overlap
     ethr =  2.32E-09,  avg # of iterations =  4.0

     negative rho (up, down):  1.238E-02 0.000E+00

     total cpu time spent up to now is       88.5 secs

     total energy              =     -38.01884495 Ry
     estimated scf accuracy    <       0.00000036 Ry

     iteration # 20     ecut=    60.00 Ry     beta= 0.50
     Davidson diagonalization with overlap
     ethr =  2.32E-09,  avg # of iterations =  2.0

     negative rho (up, down):  1.238E-02 0.000E+00

     total cpu time spent up to now is       90.4 secs

     total energy              =     -38.01884495 Ry
     estimated scf accuracy    <       0.00000009 Ry

     iteration # 21     ecut=    60.00 Ry     beta= 0.50
     Davidson diagonalization with overlap
     ethr =  1.31E-09,  avg # of iterations =  2.0

     negative rho (up, down):  1.238E-02 0.000E+00

     total cpu time spent up to now is       92.2 secs

     total energy              =     -38.01884494 Ry
     estimated scf accuracy    <       0.00000004 Ry

     iteration # 22     ecut=    60.00 Ry     beta= 0.50
     Davidson diagonalization with overlap
     ethr =  6.21E-10,  avg # of iterations =  4.0

     negative rho (up, down):  1.238E-02 0.000E+00

     total cpu time spent up to now is       94.4 secs

     total energy              =     -38.01884497 Ry
     estimated scf accuracy    <       0.00000002 Ry

     iteration # 23     ecut=    60.00 Ry     beta= 0.50
     Davidson diagonalization with overlap
     ethr =  3.00E-10,  avg # of iterations =  2.0

     negative rho (up, down):  1.238E-02 0.000E+00

     total cpu time spent up to now is       96.3 secs

     total energy              =     -38.01884497 Ry
     estimated scf accuracy    <          1.8E-09 Ry

     iteration # 24     ecut=    60.00 Ry     beta= 0.50
     Davidson diagonalization with overlap
     ethr =  2.57E-11,  avg # of iterations =  4.0

     negative rho (up, down):  1.238E-02 0.000E+00

     total cpu time spent up to now is       98.5 secs

     total energy              =     -38.01884498 Ry
     estimated scf accuracy    <       0.00000001 Ry

     iteration # 25     ecut=    60.00 Ry     beta= 0.50
     Davidson diagonalization with overlap
     ethr =  2.57E-11,  avg # of iterations =  4.0

     negative rho (up, down):  1.238E-02 0.000E+00

     total cpu time spent up to now is      100.6 secs

     total energy              =     -38.01884497 Ry
     estimated scf accuracy    <          2.1E-09 Ry

     iteration # 26     ecut=    60.00 Ry     beta= 0.50
     Davidson diagonalization with overlap
     ethr =  2.57E-11,  avg # of iterations =  2.0

     negative rho (up, down):  1.238E-02 0.000E+00

     total cpu time spent up to now is      102.4 secs

     End of self-consistent calculation

          k = 0.0000 0.0000 0.0000 ( 61161 PWs)   bands (ev):

   -32.4807 -12.8779  -9.3432  -9.3432  -0.4623   0.1778   0.5033   0.5207

     the Fermi energy is    -9.2137 ev

!    total energy              =     -38.01884497 Ry
     estimated scf accuracy    <          9.3E-11 Ry
     smearing contrib. (-TS)   =      -0.00699569 Ry
     internal energy E=F+TS    =     -38.01184929 Ry

     The total energy is F=E-TS. E is the sum of the following terms:
     one-electron contribution =     -65.31430095 Ry
     hartree contribution      =      34.02028660 Ry
     xc contribution           =      -8.90372534 Ry
     ewald contribution        =      11.85293411 Ry
     Dispersion Correction     =      -0.00000419 Ry
     one-center paw contrib.   =      -9.66703952 Ry

     convergence has been achieved in  26 iterations

     negative rho (up, down):  1.238E-02 0.000E+00

     Forces acting on atoms (cartesian axes, Ry/au):

     atom    1 type  1   force =   -18.96588662   -0.00000284   -0.00000266
     atom    2 type  2   force =    18.96588662    0.00000284    0.00000266

     Total force =    18.965887     Total SCF correction =     0.000003
     Energy error            =      4.4E+01 Ry
     Gradient error          =      1.9E+01 Ry/Bohr

     number of scf cycles    =   2
     number of bfgs steps    =   1

     energy             old  =       6.0350040647 Ry
     energy             new  =     -38.0188449742 Ry

     CASE: energy            _new < energy            _old

     new trust radius        =       0.0300801885 bohr
     new conv_thr            =            1.0E-10 Ry


ATOMIC_POSITIONS (angstrom)
H             0.0000000000        0.0000000000        0.0000000000    0   0   0
O             0.3805063557        0.0000000000        0.0000000000    1   0   0



     Writing config-only to output data dir ./pwscf.save/
     NEW-OLD atomic charge density approx. for the potential

     negative rho (up, down):  1.201E-02 0.000E+00

     total cpu time spent up to now is      104.7 secs

     Self-consistent Calculation

     iteration #  1     ecut=    60.00 Ry     beta= 0.50
     Davidson diagonalization with overlap
     ethr =  1.00E-06,  avg # of iterations =  6.0

     negative rho (up, down):  1.204E-02 0.000E+00

     total cpu time spent up to now is      107.2 secs

     total energy              =     -38.55451567 Ry
     estimated scf accuracy    <       0.00114292 Ry

     iteration #  2     ecut=    60.00 Ry     beta= 0.50
     Davidson diagonalization with overlap
     ethr =  1.63E-05,  avg # of iterations =  1.0

     negative rho (up, down):  1.211E-02 0.000E+00

     total cpu time spent up to now is      108.9 secs

     total energy              =     -38.55450966 Ry
     estimated scf accuracy    <       0.00017146 Ry

     iteration #  3     ecut=    60.00 Ry     beta= 0.50
     Davidson diagonalization with overlap
     ethr =  2.45E-06,  avg # of iterations =  3.0

     negative rho (up, down):  1.212E-02 0.000E+00

     total cpu time spent up to now is      111.1 secs

     total energy              =     -38.55474385 Ry
     estimated scf accuracy    <       0.00019076 Ry

     iteration #  4     ecut=    60.00 Ry     beta= 0.50
     Davidson diagonalization with overlap
     ethr =  2.45E-06,  avg # of iterations =  1.0

     negative rho (up, down):  1.215E-02 0.000E+00

     total cpu time spent up to now is      113.1 secs

     total energy              =     -38.55464238 Ry
     estimated scf accuracy    <       0.00016370 Ry

     iteration #  5     ecut=    60.00 Ry     beta= 0.50
     Davidson diagonalization with overlap
     ethr =  2.34E-06,  avg # of iterations =  2.0

     negative rho (up, down):  1.218E-02 0.000E+00

     total cpu time spent up to now is      115.2 secs

     total energy              =     -38.55465940 Ry
     estimated scf accuracy    <       0.00001422 Ry

     iteration #  6     ecut=    60.00 Ry     beta= 0.50
     Davidson diagonalization with overlap
     ethr =  2.03E-07,  avg # of iterations =  4.0

     negative rho (up, down):  1.219E-02 0.000E+00

     total cpu time spent up to now is      117.4 secs

     total energy              =     -38.55469524 Ry
     estimated scf accuracy    <       0.00004743 Ry

     iteration #  7     ecut=    60.00 Ry     beta= 0.50
     Davidson diagonalization with overlap
     ethr =  2.03E-07,  avg # of iterations =  1.0

     negative rho (up, down):  1.218E-02 0.000E+00

     total cpu time spent up to now is      119.2 secs

     total energy              =     -38.55468951 Ry
     estimated scf accuracy    <       0.00002423 Ry

     iteration #  8     ecut=    60.00 Ry     beta= 0.50
     Davidson diagonalization with overlap
     ethr =  2.03E-07,  avg # of iterations =  2.0

     negative rho (up, down):  1.219E-02 0.000E+00

     total cpu time spent up to now is      121.3 secs

     total energy              =     -38.55468714 Ry
     estimated scf accuracy    <       0.00000823 Ry

     iteration #  9     ecut=    60.00 Ry     beta= 0.50
     Davidson diagonalization with overlap
     ethr =  1.18E-07,  avg # of iterations =  6.0

     negative rho (up, down):  1.219E-02 0.000E+00

     total cpu time spent up to now is      123.5 secs

     total energy              =     -38.55469054 Ry
     estimated scf accuracy    <       0.00000055 Ry

     iteration # 10     ecut=    60.00 Ry     beta= 0.50
     Davidson diagonalization with overlap
     ethr =  7.80E-09,  avg # of iterations =  1.0

     negative rho (up, down):  1.219E-02 0.000E+00

     total cpu time spent up to now is      125.3 secs

     total energy              =     -38.55469049 Ry
     estimated scf accuracy    <       0.00000018 Ry

     iteration # 11     ecut=    60.00 Ry     beta= 0.50
     Davidson diagonalization with overlap
     ethr =  2.61E-09,  avg # of iterations =  2.0

     negative rho (up, down):  1.219E-02 0.000E+00

     total cpu time spent up to now is      127.2 secs

     total energy              =     -38.55469058 Ry
     estimated scf accuracy    <       0.00000001 Ry

     iteration # 12     ecut=    60.00 Ry     beta= 0.50
     Davidson diagonalization with overlap
     ethr =  2.04E-10,  avg # of iterations =  5.0

     negative rho (up, down):  1.219E-02 0.000E+00

     total cpu time spent up to now is      129.3 secs

     total energy              =     -38.55469059 Ry
     estimated scf accuracy    <          2.4E-09 Ry

     iteration # 13     ecut=    60.00 Ry     beta= 0.50
     Davidson diagonalization with overlap
     ethr =  3.40E-11,  avg # of iterations =  4.0

     negative rho (up, down):  1.219E-02 0.000E+00

     total cpu time spent up to now is      131.4 secs

     total energy              =     -38.55469058 Ry
     estimated scf accuracy    <          2.8E-09 Ry

     iteration # 14     ecut=    60.00 Ry     beta= 0.50
     Davidson diagonalization with overlap
     ethr =  3.40E-11,  avg # of iterations =  4.0

     negative rho (up, down):  1.219E-02 0.000E+00

     total cpu time spent up to now is      133.4 secs

     total energy              =     -38.55469059 Ry
     estimated scf accuracy    <          1.4E-09 Ry

     iteration # 15     ecut=    60.00 Ry     beta= 0.50
     Davidson diagonalization with overlap
     ethr =  1.99E-11,  avg # of iterations =  2.0

     negative rho (up, down):  1.219E-02 0.000E+00

     total cpu time spent up to now is      135.3 secs

     total energy              =     -38.55469059 Ry
     estimated scf accuracy    <          8.4E-10 Ry

     iteration # 16     ecut=    60.00 Ry     beta= 0.50
     Davidson diagonalization with overlap
     ethr =  1.20E-11,  avg # of iterations =  1.0

     negative rho (up, down):  1.219E-02 0.000E+00

     total cpu time spent up to now is      137.0 secs

     total energy              =     -38.55469059 Ry
     estimated scf accuracy    <          3.0E-10 Ry

     iteration # 17     ecut=    60.00 Ry     beta= 0.50
     Davidson diagonalization with overlap
     ethr =  4.22E-12,  avg # of iterations =  2.0

     negative rho (up, down):  1.219E-02 0.000E+00

     total cpu time spent up to now is      138.8 secs

     total energy              =     -38.55469059 Ry
     estimated scf accuracy    <          1.8E-10 Ry

     iteration # 18     ecut=    60.00 Ry     beta= 0.50
     Davidson diagonalization with overlap
     ethr =  2.53E-12,  avg # of iterations =  4.0

     negative rho (up, down):  1.219E-02 0.000E+00

     total cpu time spent up to now is      140.8 secs

     End of self-consistent calculation

          k = 0.0000 0.0000 0.0000 ( 61161 PWs)   bands (ev):

   -32.4567 -12.8685  -9.2735  -9.2735  -0.4629   0.1753   0.5074   0.5248

     the Fermi energy is    -9.1440 ev

!    total energy              =     -38.55469059 Ry
     estimated scf accuracy    <          8.6E-12 Ry
     smearing contrib. (-TS)   =      -0.00699569 Ry
     internal energy E=F+TS    =     -38.54769490 Ry

     The total energy is F=E-TS. E is the sum of the following terms:
     one-electron contribution =     -64.98658257 Ry
     hartree contribution      =      33.84056968 Ry
     xc contribution           =      -8.86532858 Ry
     ewald contribution        =      11.12438595 Ry
     Dispersion Correction     =      -0.00000379 Ry
     one-center paw contrib.   =      -9.66073560 Ry

     convergence has been achieved in  18 iterations

     negative rho (up, down):  1.219E-02 0.000E+00

     Forces acting on atoms (cartesian axes, Ry/au):

     atom    1 type  1   force =   -16.71165023    0.00000010    0.00000013
     atom    2 type  2   force =    16.71165023   -0.00000010   -0.00000013

     Total force =    16.711650     Total SCF correction =     0.000001
     Energy error            =      5.4E-01 Ry
     Gradient error          =      1.7E+01 Ry/Bohr

     number of scf cycles    =   3
     number of bfgs steps    =   2

     energy             old  =     -38.0188449742 Ry
     energy             new  =     -38.5546905886 Ry

     CASE: energy            _new < energy            _old


     WARNING: bfgs curvature condition failed, Theta= 0.908
     new trust radius        =       0.0330882074 bohr
     new conv_thr            =            1.0E-10 Ry


ATOMIC_POSITIONS (angstrom)
H             0.0000000000        0.0000000000        0.0000000000    0   0   0
O             0.3980158810        0.0000000000        0.0000000000    1   0   0



     Writing config-only to output data dir ./pwscf.save/
     NEW-OLD atomic charge density approx. for the potential

     negative rho (up, down):  1.182E-02 0.000E+00

     total cpu time spent up to now is      143.1 secs

     Self-consistent Calculation

     iteration #  1     ecut=    60.00 Ry     beta= 0.50
     Davidson diagonalization with overlap
     ethr =  1.00E-06,  avg # of iterations =  6.0

     negative rho (up, down):  1.185E-02 0.000E+00

     total cpu time spent up to now is      145.6 secs

     total energy              =     -39.07085408 Ry
     estimated scf accuracy    <       0.00133412 Ry

     iteration #  2     ecut=    60.00 Ry     beta= 0.50
     Davidson diagonalization with overlap
     ethr =  1.91E-05,  avg # of iterations =  1.0

     negative rho (up, down):  1.192E-02 0.000E+00

     total cpu time spent up to now is      147.2 secs

     total energy              =     -39.07084093 Ry
     estimated scf accuracy    <       0.00020435 Ry

     iteration #  3     ecut=    60.00 Ry     beta= 0.50
     Davidson diagonalization with overlap
     ethr =  2.92E-06,  avg # of iterations =  3.0

     negative rho (up, down):  1.192E-02 0.000E+00

     total cpu time spent up to now is      149.2 secs

     total energy              =     -39.07113433 Ry
     estimated scf accuracy    <       0.00023439 Ry

     iteration #  4     ecut=    60.00 Ry     beta= 0.50
     Davidson diagonalization with overlap
     ethr =  2.92E-06,  avg # of iterations =  1.0

     negative rho (up, down):  1.193E-02 0.000E+00

     total cpu time spent up to now is      150.8 secs

     total energy              =     -39.07111313 Ry
     estimated scf accuracy    <       0.00022335 Ry

     iteration #  5     ecut=    60.00 Ry     beta= 0.50
     Davidson diagonalization with overlap
     ethr =  2.92E-06,  avg # of iterations =  1.0

     negative rho (up, down):  1.206E-02 0.000E+00

     total cpu time spent up to now is      152.5 secs

     total energy              =     -39.07112246 Ry
     estimated scf accuracy    <       0.00019118 Ry

     iteration #  6     ecut=    60.00 Ry     beta= 0.50
     Davidson diagonalization with overlap
     ethr =  2.73E-06,  avg # of iterations =  4.0

     negative rho (up, down):  1.203E-02 0.000E+00

     total cpu time spent up to now is      154.7 secs

     total energy              =     -39.07110604 Ry
     estimated scf accuracy    <       0.00066986 Ry

     iteration #  7     ecut=    60.00 Ry     beta= 0.50
     Davidson diagonalization with overlap
     ethr =  2.73E-06,  avg # of iterations =  1.0

     negative rho (up, down):  1.202E-02 0.000E+00

     total cpu time spent up to now is      156.4 secs

     total energy              =     -39.07104926 Ry
     estimated scf accuracy    <       0.00024080 Ry

     iteration #  8     ecut=    60.00 Ry     beta= 0.50
     Davidson diagonalization with overlap
     ethr =  2.73E-06,  avg # of iterations =  2.0

     negative rho (up, down):  1.201E-02 0.000E+00

     total cpu time spent up to now is      158.3 secs

     total energy              =     -39.07105640 Ry
     estimated scf accuracy    <       0.00009273 Ry

     iteration #  9     ecut=    60.00 Ry     beta= 0.50
     Davidson diagonalization with overlap
     ethr =  1.32E-06,  avg # of iterations =  2.0

     negative rho (up, down):  1.201E-02 0.000E+00

     total cpu time spent up to now is      160.1 secs

     total energy              =     -39.07105459 Ry
     estimated scf accuracy    <       0.00006140 Ry

     iteration # 10     ecut=    60.00 Ry     beta= 0.50
     Davidson diagonalization with overlap
     ethr =  8.77E-07,  avg # of iterations =  2.0

     negative rho (up, down):  1.201E-02 0.000E+00

     total cpu time spent up to now is      162.1 secs

     total energy              =     -39.07106571 Ry
     estimated scf accuracy    <       0.00003396 Ry

     iteration # 11     ecut=    60.00 Ry     beta= 0.50
     Davidson diagonalization with overlap
     ethr =  4.85E-07,  avg # of iterations =  1.0

     negative rho (up, down):  1.199E-02 0.000E+00

     total cpu time spent up to now is      163.9 secs

     total energy              =     -39.07104528 Ry
     estimated scf accuracy    <       0.00004101 Ry

     iteration # 12     ecut=    60.00 Ry     beta= 0.50
     Davidson diagonalization with overlap
     ethr =  4.85E-07,  avg # of iterations =  2.0

     negative rho (up, down):  1.199E-02 0.000E+00

     total cpu time spent up to now is      165.8 secs

     total energy              =     -39.07104965 Ry
     estimated scf accuracy    <       0.00000444 Ry

     iteration # 13     ecut=    60.00 Ry     beta= 0.50
     Davidson diagonalization with overlap
     ethr =  6.35E-08,  avg # of iterations =  5.0

     negative rho (up, down):  1.200E-02 0.000E+00

     total cpu time spent up to now is      168.0 secs

     total energy              =     -39.07105350 Ry
     estimated scf accuracy    <       0.00001352 Ry

     iteration # 14     ecut=    60.00 Ry     beta= 0.50
     Davidson diagonalization with overlap
     ethr =  6.35E-08,  avg # of iterations =  1.0

     negative rho (up, down):  1.200E-02 0.000E+00

     total cpu time spent up to now is      169.7 secs

     total energy              =     -39.07105170 Ry
     estimated scf accuracy    <       0.00000579 Ry

     iteration # 15     ecut=    60.00 Ry     beta= 0.50
     Davidson diagonalization with overlap
     ethr =  6.35E-08,  avg # of iterations =  2.0

     negative rho (up, down):  1.200E-02 0.000E+00

     total cpu time spent up to now is      171.6 secs

     total energy              =     -39.07105253 Ry
     estimated scf accuracy    <       0.00000100 Ry

     iteration # 16     ecut=    60.00 Ry     beta= 0.50
     Davidson diagonalization with overlap
     ethr =  1.43E-08,  avg # of iterations =  4.0

     negative rho (up, down):  1.200E-02 0.000E+00

     total cpu time spent up to now is      173.7 secs

     total energy              =     -39.07105298 Ry
     estimated scf accuracy    <       0.00000055 Ry

     iteration # 17     ecut=    60.00 Ry     beta= 0.50
     Davidson diagonalization with overlap
     ethr =  7.79E-09,  avg # of iterations =  1.0

     negative rho (up, down):  1.200E-02 0.000E+00

     total cpu time spent up to now is      175.4 secs

     total energy              =     -39.07105299 Ry
     estimated scf accuracy    <       0.00000032 Ry

     iteration # 18     ecut=    60.00 Ry     beta= 0.50
     Davidson diagonalization with overlap
     ethr =  4.53E-09,  avg # of iterations =  1.0

     negative rho (up, down):  1.200E-02 0.000E+00

     total cpu time spent up to now is      177.1 secs

     total energy              =     -39.07105288 Ry
     estimated scf accuracy    <       0.00000028 Ry

     iteration # 19     ecut=    60.00 Ry     beta= 0.50
     Davidson diagonalization with overlap
     ethr =  3.97E-09,  avg # of iterations =  1.0

     negative rho (up, down):  1.200E-02 0.000E+00

     total cpu time spent up to now is      178.9 secs

     total energy              =     -39.07105294 Ry
     estimated scf accuracy    <       0.00000002 Ry

     iteration # 20     ecut=    60.00 Ry     beta= 0.50
     Davidson diagonalization with overlap
     ethr =  2.79E-10,  avg # of iterations =  5.0

     negative rho (up, down):  1.200E-02 0.000E+00

     total cpu time spent up to now is      181.1 secs

     total energy              =     -39.07105291 Ry
     estimated scf accuracy    <       0.00000017 Ry

     iteration # 21     ecut=    60.00 Ry     beta= 0.50
     Davidson diagonalization with overlap
     ethr =  2.79E-10,  avg # of iterations =  4.0

     negative rho (up, down):  1.200E-02 0.000E+00

     total cpu time spent up to now is      183.3 secs

     total energy              =     -39.07105294 Ry
     estimated scf accuracy    <          3.9E-09 Ry

     iteration # 22     ecut=    60.00 Ry     beta= 0.50
     Davidson diagonalization with overlap
     ethr =  5.52E-11,  avg # of iterations =  1.0

     negative rho (up, down):  1.200E-02 0.000E+00

     total cpu time spent up to now is      185.0 secs

     total energy              =     -39.07105293 Ry
     estimated scf accuracy    <          2.5E-10 Ry

     iteration # 23     ecut=    60.00 Ry     beta= 0.50
     Davidson diagonalization with overlap
     ethr =  3.61E-12,  avg # of iterations =  4.0

     negative rho (up, down):  1.200E-02 0.000E+00

     total cpu time spent up to now is      187.2 secs

     total energy              =     -39.07105294 Ry
     estimated scf accuracy    <          6.8E-10 Ry

     iteration # 24     ecut=    60.00 Ry     beta= 0.50
     Davidson diagonalization with overlap
     ethr =  3.61E-12,  avg # of iterations =  1.0

     negative rho (up, down):  1.200E-02 0.000E+00

     total cpu time spent up to now is      188.9 secs

     total energy              =     -39.07105293 Ry
     estimated scf accuracy    <          3.3E-10 Ry

     iteration # 25     ecut=    60.00 Ry     beta= 0.50
     Davidson diagonalization with overlap
     ethr =  3.61E-12,  avg # of iterations =  2.0

     negative rho (up, down):  1.200E-02 0.000E+00

     total cpu time spent up to now is      190.7 secs

     End of self-consistent calculation

          k = 0.0000 0.0000 0.0000 ( 61161 PWs)   bands (ev):

   -32.3751 -12.8489  -9.2054  -9.2053  -0.4637   0.1732   0.5118   0.5290

     the Fermi energy is    -9.0759 ev

!    total energy              =     -39.07105293 Ry
     estimated scf accuracy    <          7.8E-11 Ry
     smearing contrib. (-TS)   =      -0.00699569 Ry
     internal energy E=F+TS    =     -39.06405725 Ry

     The total energy is F=E-TS. E is the sum of the following terms:
     one-electron contribution =     -64.62150082 Ry
     hartree contribution      =      33.64449806 Ry
     xc contribution           =      -8.82320135 Ry
     ewald contribution        =      10.39029834 Ry
     Dispersion Correction     =      -0.00000343 Ry
     one-center paw contrib.   =      -9.65414804 Ry

     convergence has been achieved in  25 iterations

     negative rho (up, down):  1.200E-02 0.000E+00

     Forces acting on atoms (cartesian axes, Ry/au):

     atom    1 type  1   force =   -14.55146603   -0.00000012   -0.00000006
     atom    2 type  2   force =    14.55146603    0.00000012    0.00000006

     Total force =    14.551466     Total SCF correction =     0.000001
     Energy error            =      5.2E-01 Ry
     Gradient error          =      1.5E+01 Ry/Bohr

     number of scf cycles    =   4
     number of bfgs steps    =   3

     energy             old  =     -38.5546905886 Ry
     energy             new  =     -39.0710529346 Ry

     CASE: energy            _new < energy            _old

     new trust radius        =       0.0496323110 bohr
     new conv_thr            =            1.0E-10 Ry


ATOMIC_POSITIONS (angstrom)
H             0.0000000000        0.0000000000        0.0000000000    0   0   0
O             0.4242801689        0.0000000000        0.0000000000    1   0   0



     Writing config-only to output data dir ./pwscf.save/
     NEW-OLD atomic charge density approx. for the potential

     negative rho (up, down):  1.143E-02 0.000E+00

     total cpu time spent up to now is      193.0 secs

     Self-consistent Calculation

     iteration #  1     ecut=    60.00 Ry     beta= 0.50
     Davidson diagonalization with overlap
     ethr =  1.00E-06,  avg # of iterations =  6.0

     negative rho (up, down):  1.148E-02 0.000E+00

     total cpu time spent up to now is      195.5 secs

     total energy              =     -39.72318064 Ry
     estimated scf accuracy    <       0.00287895 Ry

     iteration #  2     ecut=    60.00 Ry     beta= 0.50
     Davidson diagonalization with overlap
     ethr =  4.11E-05,  avg # of iterations =  1.0

     negative rho (up, down):  1.162E-02 0.000E+00

     total cpu time spent up to now is      197.2 secs

     total energy              =     -39.72315834 Ry
     estimated scf accuracy    <       0.00042975 Ry

     iteration #  3     ecut=    60.00 Ry     beta= 0.50
     Davidson diagonalization with overlap
     ethr =  6.14E-06,  avg # of iterations =  3.0

     negative rho (up, down):  1.162E-02 0.000E+00

     total cpu time spent up to now is      199.1 secs

     total energy              =     -39.72373613 Ry
     estimated scf accuracy    <       0.00049017 Ry

     iteration #  4     ecut=    60.00 Ry     beta= 0.50
     Davidson diagonalization with overlap
     ethr =  6.14E-06,  avg # of iterations =  1.0

     negative rho (up, down):  1.176E-02 0.000E+00

     total cpu time spent up to now is      200.8 secs

     total energy              =     -39.72342431 Ry
     estimated scf accuracy    <       0.00040842 Ry

     iteration #  5     ecut=    60.00 Ry     beta= 0.50
     Davidson diagonalization with overlap
     ethr =  5.83E-06,  avg # of iterations =  4.0

     negative rho (up, down):  1.174E-02 0.000E+00

     total cpu time spent up to now is      202.9 secs

     total energy              =     -39.72361045 Ry
     estimated scf accuracy    <       0.00021430 Ry

     iteration #  6     ecut=    60.00 Ry     beta= 0.50
     Davidson diagonalization with overlap
     ethr =  3.06E-06,  avg # of iterations =  1.0

     negative rho (up, down):  1.173E-02 0.000E+00

     total cpu time spent up to now is      204.6 secs

     total energy              =     -39.72359854 Ry
     estimated scf accuracy    <       0.00009779 Ry

     iteration #  7     ecut=    60.00 Ry     beta= 0.50
     Davidson diagonalization with overlap
     ethr =  1.40E-06,  avg # of iterations =  2.0

     negative rho (up, down):  1.172E-02 0.000E+00

     total cpu time spent up to now is      206.4 secs

     total energy              =     -39.72358973 Ry
     estimated scf accuracy    <       0.00003633 Ry

     iteration #  8     ecut=    60.00 Ry     beta= 0.50
     Davidson diagonalization with overlap
     ethr =  5.19E-07,  avg # of iterations =  2.0

     negative rho (up, down):  1.172E-02 0.000E+00

     total cpu time spent up to now is      208.3 secs

     total energy              =     -39.72359399 Ry
     estimated scf accuracy    <       0.00000330 Ry

     iteration #  9     ecut=    60.00 Ry     beta= 0.50
     Davidson diagonalization with overlap
     ethr =  4.72E-08,  avg # of iterations =  5.0

     negative rho (up, down):  1.173E-02 0.000E+00

     total cpu time spent up to now is      210.4 secs

     total energy              =     -39.72359940 Ry
     estimated scf accuracy    <       0.00000043 Ry

     iteration # 10     ecut=    60.00 Ry     beta= 0.50
     Davidson diagonalization with overlap
     ethr =  6.09E-09,  avg # of iterations =  1.0

     negative rho (up, down):  1.173E-02 0.000E+00

     total cpu time spent up to now is      212.2 secs

     total energy              =     -39.72359965 Ry
     estimated scf accuracy    <       0.00000029 Ry

     iteration # 11     ecut=    60.00 Ry     beta= 0.50
     Davidson diagonalization with overlap
     ethr =  4.19E-09,  avg # of iterations =  2.0

     negative rho (up, down):  1.173E-02 0.000E+00

     total cpu time spent up to now is      214.0 secs

     total energy              =     -39.72359955 Ry
     estimated scf accuracy    <       0.00000077 Ry

     iteration # 12     ecut=    60.00 Ry     beta= 0.50
     Davidson diagonalization with overlap
     ethr =  4.19E-09,  avg # of iterations =  1.0

     negative rho (up, down):  1.174E-02 0.000E+00

     total cpu time spent up to now is      215.7 secs

     total energy              =     -39.72359928 Ry
     estimated scf accuracy    <       0.00000058 Ry

     iteration # 13     ecut=    60.00 Ry     beta= 0.50
     Davidson diagonalization with overlap
     ethr =  4.19E-09,  avg # of iterations =  2.0

     negative rho (up, down):  1.174E-02 0.000E+00

     total cpu time spent up to now is      217.5 secs

     total energy              =     -39.72359927 Ry
     estimated scf accuracy    <       0.00000016 Ry

     iteration # 14     ecut=    60.00 Ry     beta= 0.50
     Davidson diagonalization with overlap
     ethr =  2.22E-09,  avg # of iterations =  2.0

     negative rho (up, down):  1.174E-02 0.000E+00

     total cpu time spent up to now is      219.4 secs

     total energy              =     -39.72359927 Ry
     estimated scf accuracy    <       0.00000005 Ry

     iteration # 15     ecut=    60.00 Ry     beta= 0.50
     Davidson diagonalization with overlap
     ethr =  6.62E-10,  avg # of iterations =  4.0

     negative rho (up, down):  1.174E-02 0.000E+00

     total cpu time spent up to now is      221.5 secs

     total energy              =     -39.72359929 Ry
     estimated scf accuracy    <       0.00000003 Ry

     iteration # 16     ecut=    60.00 Ry     beta= 0.50
     Davidson diagonalization with overlap
     ethr =  3.67E-10,  avg # of iterations =  2.0

     negative rho (up, down):  1.174E-02 0.000E+00

     total cpu time spent up to now is      223.4 secs

     total energy              =     -39.72359930 Ry
     estimated scf accuracy    <          2.7E-09 Ry

     iteration # 17     ecut=    60.00 Ry     beta= 0.50
     Davidson diagonalization with overlap
     ethr =  3.82E-11,  avg # of iterations =  5.0

     negative rho (up, down):  1.174E-02 0.000E+00

     total cpu time spent up to now is      225.6 secs

     total energy              =     -39.72359930 Ry
     estimated scf accuracy    <       0.00000002 Ry

     iteration # 18     ecut=    60.00 Ry     beta= 0.50
     Davidson diagonalization with overlap
     ethr =  3.82E-11,  avg # of iterations =  4.0

     negative rho (up, down):  1.174E-02 0.000E+00

     total cpu time spent up to now is      227.7 secs

     End of self-consistent calculation

          k = 0.0000 0.0000 0.0000 ( 61161 PWs)   bands (ev):

   -32.1583 -12.8054  -9.1172  -9.1172  -0.4652   0.1707   0.5185   0.5347

     the Fermi energy is    -8.9877 ev

!    total energy              =     -39.72359930 Ry
     estimated scf accuracy    <          7.1E-11 Ry
     smearing contrib. (-TS)   =      -0.00699569 Ry
     internal energy E=F+TS    =     -39.71660362 Ry

     The total energy is F=E-TS. E is the sum of the following terms:
     one-electron contribution =     -64.06823797 Ry
     hartree contribution      =      33.35438820 Ry
     xc contribution           =      -8.76051798 Ry
     ewald contribution        =       9.40279165 Ry
     Dispersion Correction     =      -0.00000302 Ry
     one-center paw contrib.   =      -9.64502449 Ry

     convergence has been achieved in  18 iterations

     negative rho (up, down):  1.174E-02 0.000E+00

     Forces acting on atoms (cartesian axes, Ry/au):

     atom    1 type  1   force =   -11.84082454    0.00000008   -0.00000000
     atom    2 type  2   force =    11.84082454   -0.00000008    0.00000000

     Total force =    11.840825     Total SCF correction =     0.000020
     Energy error            =      6.5E-01 Ry
     Gradient error          =      1.2E+01 Ry/Bohr

     number of scf cycles    =   5
     number of bfgs steps    =   4

     energy             old  =     -39.0710529346 Ry
     energy             new  =     -39.7235993015 Ry

     CASE: energy            _new < energy            _old

     new trust radius        =       0.0744484666 bohr
     new conv_thr            =            1.0E-10 Ry


ATOMIC_POSITIONS (angstrom)
H             0.0000000000        0.0000000000        0.0000000000    0   0   0
O             0.4636766008        0.0000000000        0.0000000000    1   0   0



     Writing config-only to output data dir ./pwscf.save/
     NEW-OLD atomic charge density approx. for the potential

     negative rho (up, down):  1.087E-02 0.000E+00

     total cpu time spent up to now is      230.0 secs

     Self-consistent Calculation

     iteration #  1     ecut=    60.00 Ry     beta= 0.50
     Davidson diagonalization with overlap
     ethr =  1.00E-06,  avg # of iterations =  9.0

     negative rho (up, down):  1.097E-02 0.000E+00

     total cpu time spent up to now is      232.9 secs

     total energy              =     -40.48215537 Ry
     estimated scf accuracy    <       0.00596135 Ry

     iteration #  2     ecut=    60.00 Ry     beta= 0.50
     Davidson diagonalization with overlap
     ethr =  8.52E-05,  avg # of iterations =  1.0

     negative rho (up, down):  1.119E-02 0.000E+00

     total cpu time spent up to now is      234.6 secs

     total energy              =     -40.48205164 Ry
     estimated scf accuracy    <       0.00089164 Ry

     iteration #  3     ecut=    60.00 Ry     beta= 0.50
     Davidson diagonalization with overlap
     ethr =  1.27E-05,  avg # of iterations =  4.0

     negative rho (up, down):  1.119E-02 0.000E+00

     total cpu time spent up to now is      236.6 secs

     total energy              =     -40.48343445 Ry
     estimated scf accuracy    <       0.00108768 Ry

     iteration #  4     ecut=    60.00 Ry     beta= 0.50
     Davidson diagonalization with overlap
     ethr =  1.27E-05,  avg # of iterations =  1.0

     negative rho (up, down):  1.133E-02 0.000E+00

     total cpu time spent up to now is      238.3 secs

     total energy              =     -40.48279526 Ry
     estimated scf accuracy    <       0.00121021 Ry

     iteration #  5     ecut=    60.00 Ry     beta= 0.50
     Davidson diagonalization with overlap
     ethr =  1.27E-05,  avg # of iterations =  1.0

     negative rho (up, down):  1.137E-02 0.000E+00

     total cpu time spent up to now is      240.0 secs

     total energy              =     -40.48276775 Ry
     estimated scf accuracy    <       0.00026593 Ry

     iteration #  6     ecut=    60.00 Ry     beta= 0.50
     Davidson diagonalization with overlap
     ethr =  3.80E-06,  avg # of iterations =  3.0

     negative rho (up, down):  1.138E-02 0.000E+00

     total cpu time spent up to now is      241.9 secs

     total energy              =     -40.48296384 Ry
     estimated scf accuracy    <       0.00002292 Ry

     iteration #  7     ecut=    60.00 Ry     beta= 0.50
     Davidson diagonalization with overlap
     ethr =  3.27E-07,  avg # of iterations =  2.0

     negative rho (up, down):  1.136E-02 0.000E+00

     total cpu time spent up to now is      243.7 secs

     total energy              =     -40.48294879 Ry
     estimated scf accuracy    <       0.00002965 Ry

     iteration #  8     ecut=    60.00 Ry     beta= 0.50
     Davidson diagonalization with overlap
     ethr =  3.27E-07,  avg # of iterations =  2.0

     negative rho (up, down):  1.136E-02 0.000E+00

     total cpu time spent up to now is      245.6 secs

     total energy              =     -40.48295759 Ry
     estimated scf accuracy    <       0.00000153 Ry

     iteration #  9     ecut=    60.00 Ry     beta= 0.50
     Davidson diagonalization with overlap
     ethr =  2.18E-08,  avg # of iterations =  5.0

     negative rho (up, down):  1.138E-02 0.000E+00

     total cpu time spent up to now is      247.9 secs

     total energy              =     -40.48295422 Ry
     estimated scf accuracy    <       0.00004446 Ry

     iteration # 10     ecut=    60.00 Ry     beta= 0.50
     Davidson diagonalization with overlap
     ethr =  2.18E-08,  avg # of iterations =  4.0

     negative rho (up, down):  1.138E-02 0.000E+00

     total cpu time spent up to now is      250.0 secs

     total energy              =     -40.48295570 Ry
     estimated scf accuracy    <       0.00000555 Ry

     iteration # 11     ecut=    60.00 Ry     beta= 0.50
     Davidson diagonalization with overlap
     ethr =  2.18E-08,  avg # of iterations =  3.0

     negative rho (up, down):  1.138E-02 0.000E+00

     total cpu time spent up to now is      252.0 secs

     total energy              =     -40.48295715 Ry
     estimated scf accuracy    <       0.00000157 Ry

     iteration # 12     ecut=    60.00 Ry     beta= 0.50
     Davidson diagonalization with overlap
     ethr =  2.18E-08,  avg # of iterations =  1.0

     negative rho (up, down):  1.138E-02 0.000E+00

     total cpu time spent up to now is      253.8 secs

     total energy              =     -40.48295707 Ry
     estimated scf accuracy    <       0.00000332 Ry

     iteration # 13     ecut=    60.00 Ry     beta= 0.50
     Davidson diagonalization with overlap
     ethr =  2.18E-08,  avg # of iterations =  1.0

     negative rho (up, down):  1.139E-02 0.000E+00

     total cpu time spent up to now is      255.5 secs

     total energy              =     -40.48295627 Ry
     estimated scf accuracy    <       0.00000289 Ry

     iteration # 14     ecut=    60.00 Ry     beta= 0.50
     Davidson diagonalization with overlap
     ethr =  2.18E-08,  avg # of iterations =  2.0

     negative rho (up, down):  1.139E-02 0.000E+00

     total cpu time spent up to now is      257.3 secs

     total energy              =     -40.48295598 Ry
     estimated scf accuracy    <       0.00000127 Ry

     iteration # 15     ecut=    60.00 Ry     beta= 0.50
     Davidson diagonalization with overlap
     ethr =  1.82E-08,  avg # of iterations =  2.0

     negative rho (up, down):  1.139E-02 0.000E+00

     total cpu time spent up to now is      259.1 secs

     total energy              =     -40.48295589 Ry
     estimated scf accuracy    <       0.00000047 Ry

     iteration # 16     ecut=    60.00 Ry     beta= 0.50
     Davidson diagonalization with overlap
     ethr =  6.76E-09,  avg # of iterations =  2.0

     negative rho (up, down):  1.140E-02 0.000E+00

     total cpu time spent up to now is      261.0 secs

     total energy              =     -40.48295594 Ry
     estimated scf accuracy    <       0.00000007 Ry

     iteration # 17     ecut=    60.00 Ry     beta= 0.50
     Davidson diagonalization with overlap
     ethr =  1.06E-09,  avg # of iterations =  4.0

     negative rho (up, down):  1.139E-02 0.000E+00

     total cpu time spent up to now is      263.1 secs

     total energy              =     -40.48295603 Ry
     estimated scf accuracy    <       0.00000006 Ry

     iteration # 18     ecut=    60.00 Ry     beta= 0.50
     Davidson diagonalization with overlap
     ethr =  7.97E-10,  avg # of iterations =  1.0

     negative rho (up, down):  1.139E-02 0.000E+00

     total cpu time spent up to now is      264.9 secs

     total energy              =     -40.48295603 Ry
     estimated scf accuracy    <       0.00000002 Ry

     iteration # 19     ecut=    60.00 Ry     beta= 0.50
     Davidson diagonalization with overlap
     ethr =  2.53E-10,  avg # of iterations =  2.0

     negative rho (up, down):  1.139E-02 0.000E+00

     total cpu time spent up to now is      266.8 secs

     total energy              =     -40.48295603 Ry
     estimated scf accuracy    <          7.3E-09 Ry

     iteration # 20     ecut=    60.00 Ry     beta= 0.50
     Davidson diagonalization with overlap
     ethr =  1.04E-10,  avg # of iterations =  2.0

     negative rho (up, down):  1.139E-02 0.000E+00

     total cpu time spent up to now is      268.6 secs

     total energy              =     -40.48295603 Ry
     estimated scf accuracy    <          8.8E-10 Ry

     iteration # 21     ecut=    60.00 Ry     beta= 0.50
     Davidson diagonalization with overlap
     ethr =  1.25E-11,  avg # of iterations =  4.0

     negative rho (up, down):  1.139E-02 0.000E+00

     total cpu time spent up to now is      270.8 secs

     total energy              =     -40.48295603 Ry
     estimated scf accuracy    <          3.4E-09 Ry

     iteration # 22     ecut=    60.00 Ry     beta= 0.50
     Davidson diagonalization with overlap
     ethr =  1.25E-11,  avg # of iterations =  1.0

     negative rho (up, down):  1.139E-02 0.000E+00

     total cpu time spent up to now is      272.5 secs

     total energy              =     -40.48295603 Ry
     estimated scf accuracy    <          2.0E-09 Ry

     iteration # 23     ecut=    60.00 Ry     beta= 0.50
     Davidson diagonalization with overlap
     ethr =  1.25E-11,  avg # of iterations =  4.0

     negative rho (up, down):  1.139E-02 0.000E+00

     total cpu time spent up to now is      274.6 secs

     total energy              =     -40.48295603 Ry
     estimated scf accuracy    <          1.9E-10 Ry

     iteration # 24     ecut=    60.00 Ry     beta= 0.50
     Davidson diagonalization with overlap
     ethr =  2.77E-12,  avg # of iterations =  4.0

     negative rho (up, down):  1.139E-02 0.000E+00

     total cpu time spent up to now is      276.5 secs

     End of self-consistent calculation

          k = 0.0000 0.0000 0.0000 ( 61161 PWs)   bands (ev):

   -31.6696 -12.7204  -9.0098  -9.0098  -0.4674   0.1684   0.5273   0.5419

     the Fermi energy is    -8.8803 ev

!    total energy              =     -40.48295603 Ry
     estimated scf accuracy    <          9.3E-11 Ry
     smearing contrib. (-TS)   =      -0.00699569 Ry
     internal energy E=F+TS    =     -40.47596035 Ry

     The total energy is F=E-TS. E is the sum of the following terms:
     one-electron contribution =     -63.23625313 Ry
     hartree contribution      =      32.93072728 Ry
     xc contribution           =      -8.66856834 Ry
     ewald contribution        =       8.13133268 Ry
     Dispersion Correction     =      -0.00000260 Ry
     one-center paw contrib.   =      -9.63319625 Ry

     convergence has been achieved in  24 iterations

     negative rho (up, down):  1.139E-02 0.000E+00

     Forces acting on atoms (cartesian axes, Ry/au):

     atom    1 type  1   force =    -8.72600090   -0.00000043   -0.00000018
     atom    2 type  2   force =     8.72600090    0.00000043    0.00000018

     Total force =     8.726001     Total SCF correction =     0.000003
     Energy error            =      7.6E-01 Ry
     Gradient error          =      8.7E+00 Ry/Bohr

     number of scf cycles    =   6
     number of bfgs steps    =   5

     energy             old  =     -39.7235993015 Ry
     energy             new  =     -40.4829560316 Ry

     CASE: energy            _new < energy            _old

     new trust radius        =       0.1116726999 bohr
     new conv_thr            =            1.0E-10 Ry


ATOMIC_POSITIONS (angstrom)
H             0.0000000000        0.0000000000        0.0000000000    0   0   0
O             0.5227712487        0.0000000000        0.0000000000    1   0   0



     Writing config-only to output data dir ./pwscf.save/
     NEW-OLD atomic charge density approx. for the potential

     negative rho (up, down):  1.008E-02 0.000E+00

     total cpu time spent up to now is      278.8 secs

     Self-consistent Calculation

     iteration #  1     ecut=    60.00 Ry     beta= 0.50
     Davidson diagonalization with overlap
     ethr =  1.00E-06,  avg # of iterations = 10.0

     negative rho (up, down):  1.027E-02 0.000E+00

     total cpu time spent up to now is      281.9 secs

     total energy              =     -41.26655595 Ry
     estimated scf accuracy    <       0.01169255 Ry

     iteration #  2     ecut=    60.00 Ry     beta= 0.50
     Davidson diagonalization with overlap
     ethr =  1.67E-04,  avg # of iterations =  1.0

     negative rho (up, down):  1.063E-02 0.000E+00

     total cpu time spent up to now is      283.6 secs

     total energy              =     -41.26638622 Ry
     estimated scf accuracy    <       0.00163759 Ry

     iteration #  3     ecut=    60.00 Ry     beta= 0.50
     Davidson diagonalization with overlap
     ethr =  2.34E-05,  avg # of iterations =  4.0

     negative rho (up, down):  1.063E-02 0.000E+00

     total cpu time spent up to now is      285.6 secs

     total energy              =     -41.26864973 Ry
     estimated scf accuracy    <       0.00178778 Ry

     iteration #  4     ecut=    60.00 Ry     beta= 0.50
     Davidson diagonalization with overlap
     ethr =  2.34E-05,  avg # of iterations =  1.0

     negative rho (up, down):  1.081E-02 0.000E+00

     total cpu time spent up to now is      287.3 secs

     total energy              =     -41.26774308 Ry
     estimated scf accuracy    <       0.00172168 Ry

     iteration #  5     ecut=    60.00 Ry     beta= 0.50
     Davidson diagonalization with overlap
     ethr =  2.34E-05,  avg # of iterations =  1.0

     negative rho (up, down):  1.094E-02 0.000E+00

     total cpu time spent up to now is      289.0 secs

     total energy              =     -41.26773248 Ry
     estimated scf accuracy    <       0.00027587 Ry

     iteration #  6     ecut=    60.00 Ry     beta= 0.50
     Davidson diagonalization with overlap
     ethr =  3.94E-06,  avg # of iterations =  3.0

     negative rho (up, down):  1.092E-02 0.000E+00

     total cpu time spent up to now is      290.9 secs

     total energy              =     -41.26802204 Ry
     estimated scf accuracy    <       0.00017609 Ry

     iteration #  7     ecut=    60.00 Ry     beta= 0.50
     Davidson diagonalization with overlap
     ethr =  2.52E-06,  avg # of iterations =  1.0

     negative rho (up, down):  1.092E-02 0.000E+00

     total cpu time spent up to now is      292.6 secs

     total energy              =     -41.26801425 Ry
     estimated scf accuracy    <       0.00007120 Ry

     iteration #  8     ecut=    60.00 Ry     beta= 0.50
     Davidson diagonalization with overlap
     ethr =  1.02E-06,  avg # of iterations =  2.0

     negative rho (up, down):  1.091E-02 0.000E+00

     total cpu time spent up to now is      294.4 secs

     total energy              =     -41.26800865 Ry
     estimated scf accuracy    <       0.00003225 Ry

     iteration #  9     ecut=    60.00 Ry     beta= 0.50
     Davidson diagonalization with overlap
     ethr =  4.61E-07,  avg # of iterations =  2.0

     negative rho (up, down):  1.091E-02 0.000E+00

     total cpu time spent up to now is      296.4 secs

     total energy              =     -41.26800971 Ry
     estimated scf accuracy    <       0.00000710 Ry

     iteration # 10     ecut=    60.00 Ry     beta= 0.50
     Davidson diagonalization with overlap
     ethr =  1.01E-07,  avg # of iterations =  4.0

     negative rho (up, down):  1.092E-02 0.000E+00

     total cpu time spent up to now is      298.4 secs

     total energy              =     -41.26801268 Ry
     estimated scf accuracy    <       0.00000165 Ry

     iteration # 11     ecut=    60.00 Ry     beta= 0.50
     Davidson diagonalization with overlap
     ethr =  2.36E-08,  avg # of iterations =  2.0

     negative rho (up, down):  1.092E-02 0.000E+00

     total cpu time spent up to now is      300.3 secs

     total energy              =     -41.26801367 Ry
     estimated scf accuracy    <       0.00000059 Ry

     iteration # 12     ecut=    60.00 Ry     beta= 0.50
     Davidson diagonalization with overlap
     ethr =  8.43E-09,  avg # of iterations =  4.0

     negative rho (up, down):  1.093E-02 0.000E+00

     total cpu time spent up to now is      302.6 secs

     total energy              =     -41.26801283 Ry
     estimated scf accuracy    <       0.00000243 Ry

     iteration # 13     ecut=    60.00 Ry     beta= 0.50
     Davidson diagonalization with overlap
     ethr =  8.43E-09,  avg # of iterations =  4.0

     negative rho (up, down):  1.093E-02 0.000E+00

     total cpu time spent up to now is      304.8 secs

     total energy              =     -41.26801312 Ry
     estimated scf accuracy    <       0.00000024 Ry

     iteration # 14     ecut=    60.00 Ry     beta= 0.50
     Davidson diagonalization with overlap
     ethr =  3.44E-09,  avg # of iterations =  1.0

     negative rho (up, down):  1.093E-02 0.000E+00

     total cpu time spent up to now is      306.5 secs

     total energy              =     -41.26801311 Ry
     estimated scf accuracy    <       0.00000009 Ry

     iteration # 15     ecut=    60.00 Ry     beta= 0.50
     Davidson diagonalization with overlap
     ethr =  1.23E-09,  avg # of iterations =  1.0

     negative rho (up, down):  1.093E-02 0.000E+00

     total cpu time spent up to now is      308.3 secs

     total energy              =     -41.26801311 Ry
     estimated scf accuracy    <       0.00000003 Ry

     iteration # 16     ecut=    60.00 Ry     beta= 0.50
     Davidson diagonalization with overlap
     ethr =  3.68E-10,  avg # of iterations =  4.0

     negative rho (up, down):  1.093E-02 0.000E+00

     total cpu time spent up to now is      310.3 secs

     total energy              =     -41.26801312 Ry
     estimated scf accuracy    <          8.6E-09 Ry

     iteration # 17     ecut=    60.00 Ry     beta= 0.50
     Davidson diagonalization with overlap
     ethr =  1.23E-10,  avg # of iterations =  1.0

     negative rho (up, down):  1.092E-02 0.000E+00

     total cpu time spent up to now is      312.1 secs

     total energy              =     -41.26801312 Ry
     estimated scf accuracy    <          8.4E-09 Ry

     iteration # 18     ecut=    60.00 Ry     beta= 0.50
     Davidson diagonalization with overlap
     ethr =  1.21E-10,  avg # of iterations =  1.0

     negative rho (up, down):  1.093E-02 0.000E+00

     total cpu time spent up to now is      313.8 secs

     total energy              =     -41.26801312 Ry
     estimated scf accuracy    <          3.8E-09 Ry

     iteration # 19     ecut=    60.00 Ry     beta= 0.50
     Davidson diagonalization with overlap
     ethr =  5.40E-11,  avg # of iterations =  2.0

     negative rho (up, down):  1.093E-02 0.000E+00

     total cpu time spent up to now is      315.7 secs

     total energy              =     -41.26801312 Ry
     estimated scf accuracy    <          2.8E-10 Ry

     iteration # 20     ecut=    60.00 Ry     beta= 0.50
     Davidson diagonalization with overlap
     ethr =  4.07E-12,  avg # of iterations =  5.0

     negative rho (up, down):  1.093E-02 0.000E+00

     total cpu time spent up to now is      318.0 secs

     total energy              =     -41.26801312 Ry
     estimated scf accuracy    <          1.2E-09 Ry

     iteration # 21     ecut=    60.00 Ry     beta= 0.50
     Davidson diagonalization with overlap
     ethr =  4.07E-12,  avg # of iterations =  2.0

     negative rho (up, down):  1.093E-02 0.000E+00

     total cpu time spent up to now is      319.8 secs

     total energy              =     -41.26801312 Ry
     estimated scf accuracy    <          5.6E-10 Ry

     iteration # 22     ecut=    60.00 Ry     beta= 0.50
     Davidson diagonalization with overlap
     ethr =  4.07E-12,  avg # of iterations =  4.0

     negative rho (up, down):  1.092E-02 0.000E+00

     total cpu time spent up to now is      321.7 secs

     End of self-consistent calculation

          k = 0.0000 0.0000 0.0000 ( 61161 PWs)   bands (ev):

   -30.7248 -12.5785  -8.8825  -8.8825  -0.4705   0.1667   0.5388   0.5526

     the Fermi energy is    -8.7530 ev

!    total energy              =     -41.26801312 Ry
     estimated scf accuracy    <          6.0E-11 Ry
     smearing contrib. (-TS)   =      -0.00699569 Ry
     internal energy E=F+TS    =     -41.26101743 Ry

     The total energy is F=E-TS. E is the sum of the following terms:
     one-electron contribution =     -62.01358205 Ry
     hartree contribution      =      32.32634713 Ry
     xc contribution           =      -8.53767422 Ry
     ewald contribution        =       6.58355308 Ry
     Dispersion Correction     =      -0.00000223 Ry
     one-center paw contrib.   =      -9.61965914 Ry

     convergence has been achieved in  22 iterations

     negative rho (up, down):  1.092E-02 0.000E+00

     Forces acting on atoms (cartesian axes, Ry/au):

     atom    1 type  1   force =    -5.58417414    0.00000026   -0.00000036
     atom    2 type  2   force =     5.58417414   -0.00000026    0.00000036

     Total force =     5.584174     Total SCF correction =     0.000028
     Energy error            =      7.9E-01 Ry
     Gradient error          =      5.6E+00 Ry/Bohr

     number of scf cycles    =   7
     number of bfgs steps    =   6

     energy             old  =     -40.4829560316 Ry
     energy             new  =     -41.2680131195 Ry

     CASE: energy            _new < energy            _old

     new trust radius        =       0.1675090498 bohr
     new conv_thr            =            1.0E-10 Ry


ATOMIC_POSITIONS (angstrom)
H             0.0000000000        0.0000000000        0.0000000000    0   0   0
O             0.6114132204        0.0000000000        0.0000000000    1   0   0



     Writing config-only to output data dir ./pwscf.save/
     NEW-OLD atomic charge density approx. for the potential

     negative rho (up, down):  9.105E-03 0.000E+00

     total cpu time spent up to now is      324.0 secs

     Self-consistent Calculation

     iteration #  1     ecut=    60.00 Ry     beta= 0.50
     Davidson diagonalization with overlap
     ethr =  1.00E-06,  avg # of iterations = 12.0

     negative rho (up, down):  9.446E-03 0.000E+00

     total cpu time spent up to now is      327.6 secs

     total energy              =     -41.95312437 Ry
     estimated scf accuracy    <       0.02009198 Ry

     iteration #  2     ecut=    60.00 Ry     beta= 0.50
     Davidson diagonalization with overlap
     ethr =  2.87E-04,  avg # of iterations =  1.0

     negative rho (up, down):  9.943E-03 0.000E+00

     total cpu time spent up to now is      329.3 secs

     total energy              =     -41.95301738 Ry
     estimated scf accuracy    <       0.00251063 Ry

     iteration #  3     ecut=    60.00 Ry     beta= 0.50
     Davidson diagonalization with overlap
     ethr =  3.59E-05,  avg # of iterations =  4.0

     negative rho (up, down):  9.963E-03 0.000E+00

     total cpu time spent up to now is      331.4 secs

     total energy              =     -41.95583094 Ry
     estimated scf accuracy    <       0.00220088 Ry

     iteration #  4     ecut=    60.00 Ry     beta= 0.50
     Davidson diagonalization with overlap
     ethr =  3.14E-05,  avg # of iterations =  1.0

     negative rho (up, down):  1.011E-02 0.000E+00

     total cpu time spent up to now is      333.1 secs

     total energy              =     -41.95502159 Ry
     estimated scf accuracy    <       0.00168694 Ry

     iteration #  5     ecut=    60.00 Ry     beta= 0.50
     Davidson diagonalization with overlap
     ethr =  2.41E-05,  avg # of iterations =  1.0

     negative rho (up, down):  1.035E-02 0.000E+00

     total cpu time spent up to now is      334.7 secs

     total energy              =     -41.95488506 Ry
     estimated scf accuracy    <       0.00069871 Ry

     iteration #  6     ecut=    60.00 Ry     beta= 0.50
     Davidson diagonalization with overlap
     ethr =  9.98E-06,  avg # of iterations =  4.0

     negative rho (up, down):  1.030E-02 0.000E+00

     total cpu time spent up to now is      336.8 secs

     total energy              =     -41.95527970 Ry
     estimated scf accuracy    <       0.00054777 Ry

     iteration #  7     ecut=    60.00 Ry     beta= 0.50
     Davidson diagonalization with overlap
     ethr =  7.83E-06,  avg # of iterations =  1.0

     negative rho (up, down):  1.032E-02 0.000E+00

     total cpu time spent up to now is      338.5 secs

     total energy              =     -41.95520934 Ry
     estimated scf accuracy    <       0.00017184 Ry

     iteration #  8     ecut=    60.00 Ry     beta= 0.50
     Davidson diagonalization with overlap
     ethr =  2.45E-06,  avg # of iterations =  4.0

     negative rho (up, down):  1.031E-02 0.000E+00

     total cpu time spent up to now is      340.5 secs

     total energy              =     -41.95531508 Ry
     estimated scf accuracy    <       0.00001094 Ry

     iteration #  9     ecut=    60.00 Ry     beta= 0.50
     Davidson diagonalization with overlap
     ethr =  1.56E-07,  avg # of iterations =  4.0

     negative rho (up, down):  1.032E-02 0.000E+00

     total cpu time spent up to now is      342.5 secs

     total energy              =     -41.95531977 Ry
     estimated scf accuracy    <       0.00004177 Ry

     iteration # 10     ecut=    60.00 Ry     beta= 0.50
     Davidson diagonalization with overlap
     ethr =  1.56E-07,  avg # of iterations =  1.0

     negative rho (up, down):  1.032E-02 0.000E+00

     total cpu time spent up to now is      344.3 secs

     total energy              =     -41.95531625 Ry
     estimated scf accuracy    <       0.00003391 Ry

     iteration # 11     ecut=    60.00 Ry     beta= 0.50
     Davidson diagonalization with overlap
     ethr =  1.56E-07,  avg # of iterations =  1.0

     negative rho (up, down):  1.033E-02 0.000E+00

     total cpu time spent up to now is      346.0 secs

     total energy              =     -41.95531128 Ry
     estimated scf accuracy    <       0.00002657 Ry

     iteration # 12     ecut=    60.00 Ry     beta= 0.50
     Davidson diagonalization with overlap
[...]

     iteration # 17     ecut=    60.00 Ry     beta= 0.50
     Davidson diagonalization with overlap
     ethr =  2.11E-08,  avg # of iterations =  2.0

     negative rho (up, down):  8.840E-03 0.000E+00

     total cpu time spent up to now is      672.0 secs

     total energy              =     -42.59870802 Ry
     estimated scf accuracy    <       0.00000129 Ry

     iteration # 18     ecut=    60.00 Ry     beta= 0.50
     Davidson diagonalization with overlap
     ethr =  1.84E-08,  avg # of iterations =  1.0

     negative rho (up, down):  8.840E-03 0.000E+00

     total cpu time spent up to now is      673.7 secs

     total energy              =     -42.59870823 Ry
     estimated scf accuracy    <       0.00000131 Ry

     iteration # 19     ecut=    60.00 Ry     beta= 0.50
     Davidson diagonalization with overlap
     ethr =  1.84E-08,  avg # of iterations =  1.0

     negative rho (up, down):  8.840E-03 0.000E+00

     total cpu time spent up to now is      675.4 secs

     total energy              =     -42.59870865 Ry
     estimated scf accuracy    <       0.00000170 Ry

     iteration # 20     ecut=    60.00 Ry     beta= 0.50
     Davidson diagonalization with overlap
     ethr =  1.84E-08,  avg # of iterations =  1.0

     negative rho (up, down):  8.834E-03 0.000E+00

     total cpu time spent up to now is      677.1 secs

     total energy              =     -42.59870677 Ry
     estimated scf accuracy    <       0.00000244 Ry

     iteration # 21     ecut=    60.00 Ry     beta= 0.50
     Davidson diagonalization with overlap
     ethr =  1.84E-08,  avg # of iterations =  4.0

     negative rho (up, down):  8.832E-03 0.000E+00

     total cpu time spent up to now is      679.3 secs

     total energy              =     -42.59871191 Ry
     estimated scf accuracy    <       0.00000329 Ry

     iteration # 22     ecut=    60.00 Ry     beta= 0.50
     Davidson diagonalization with overlap
     ethr =  1.84E-08,  avg # of iterations =  4.0

     negative rho (up, down):  8.838E-03 0.000E+00

     total cpu time spent up to now is      681.5 secs

     total energy              =     -42.59870449 Ry
     estimated scf accuracy    <       0.00001614 Ry

     iteration # 23     ecut=    60.00 Ry     beta= 0.50
     Davidson diagonalization with overlap
     ethr =  1.84E-08,  avg # of iterations =  4.0

     negative rho (up, down):  8.838E-03 0.000E+00

     total cpu time spent up to now is      683.6 secs

     total energy              =     -42.59870788 Ry
     estimated scf accuracy    <       0.00000003 Ry

     iteration # 24     ecut=    60.00 Ry     beta= 0.50
     Davidson diagonalization with overlap
     ethr =  3.93E-10,  avg # of iterations =  2.0

     negative rho (up, down):  8.838E-03 0.000E+00

     total cpu time spent up to now is      685.5 secs

     total energy              =     -42.59870786 Ry
     estimated scf accuracy    <       0.00000004 Ry

     iteration # 25     ecut=    60.00 Ry     beta= 0.50
     Davidson diagonalization with overlap
     ethr =  3.93E-10,  avg # of iterations =  1.0

     negative rho (up, down):  8.838E-03 0.000E+00

     total cpu time spent up to now is      687.2 secs

     total energy              =     -42.59870786 Ry
     estimated scf accuracy    <       0.00000001 Ry

     iteration # 26     ecut=    60.00 Ry     beta= 0.50
     Davidson diagonalization with overlap
     ethr =  1.82E-10,  avg # of iterations =  2.0

     negative rho (up, down):  8.838E-03 0.000E+00

     total cpu time spent up to now is      689.0 secs

     total energy              =     -42.59870786 Ry
     estimated scf accuracy    <          7.5E-10 Ry

     iteration # 27     ecut=    60.00 Ry     beta= 0.50
     Davidson diagonalization with overlap
     ethr =  1.07E-11,  avg # of iterations =  5.0

     negative rho (up, down):  8.838E-03 0.000E+00

     total cpu time spent up to now is      691.3 secs

     total energy              =     -42.59870787 Ry
     estimated scf accuracy    <          1.6E-09 Ry

     iteration # 28     ecut=    60.00 Ry     beta= 0.50
     Davidson diagonalization with overlap
     ethr =  1.07E-11,  avg # of iterations =  1.0

     negative rho (up, down):  8.838E-03 0.000E+00

     total cpu time spent up to now is      693.0 secs

     total energy              =     -42.59870787 Ry
     estimated scf accuracy    <          1.0E-09 Ry

     iteration # 29     ecut=    60.00 Ry     beta= 0.50
     Davidson diagonalization with overlap
     ethr =  1.07E-11,  avg # of iterations =  2.0

     negative rho (up, down):  8.838E-03 0.000E+00

     total cpu time spent up to now is      694.8 secs

     total energy              =     -42.59870787 Ry
     estimated scf accuracy    <          2.4E-10 Ry

     iteration # 30     ecut=    60.00 Ry     beta= 0.50
     Davidson diagonalization with overlap
     ethr =  3.41E-12,  avg # of iterations =  2.0

     negative rho (up, down):  8.838E-03 0.000E+00

     total cpu time spent up to now is      696.7 secs

     total energy              =     -42.59870787 Ry
     estimated scf accuracy    <          5.3E-11 Ry

     iteration # 31     ecut=    60.00 Ry     beta= 0.50
     Davidson diagonalization with overlap
     ethr =  7.57E-13,  avg # of iterations =  4.0

     negative rho (up, down):  8.838E-03 0.000E+00

     total cpu time spent up to now is      698.8 secs

     total energy              =     -42.59870787 Ry
     estimated scf accuracy    <          6.1E-11 Ry

     iteration # 32     ecut=    60.00 Ry     beta= 0.50
     Davidson diagonalization with overlap
     ethr =  7.57E-13,  avg # of iterations =  1.0

     negative rho (up, down):  8.838E-03 0.000E+00

     total cpu time spent up to now is      700.6 secs

     total energy              =     -42.59870787 Ry
     estimated scf accuracy    <          4.0E-11 Ry

     iteration # 33     ecut=    60.00 Ry     beta= 0.50
     Davidson diagonalization with overlap
     ethr =  5.67E-13,  avg # of iterations =  1.0

     negative rho (up, down):  8.838E-03 0.000E+00

     total cpu time spent up to now is      702.3 secs

     total energy              =     -42.59870787 Ry
     estimated scf accuracy    <          3.3E-11 Ry

     iteration # 34     ecut=    60.00 Ry     beta= 0.50
     Davidson diagonalization with overlap
     ethr =  4.75E-13,  avg # of iterations =  1.0

     negative rho (up, down):  8.838E-03 0.000E+00

     total cpu time spent up to now is      704.0 secs

     total energy              =     -42.59870787 Ry
     estimated scf accuracy    <          3.3E-11 Ry

     iteration # 35     ecut=    60.00 Ry     beta= 0.50
     Davidson diagonalization with overlap
     ethr =  4.74E-13,  avg # of iterations =  1.0

     negative rho (up, down):  8.838E-03 0.000E+00

     total cpu time spent up to now is      705.6 secs

     End of self-consistent calculation

          k = 0.0000 0.0000 0.0000 ( 61161 PWs)   bands (ev):

   -24.7547 -11.3753  -8.1268  -8.1268  -0.8000   0.0266   0.5766   0.5855

     the Fermi energy is    -7.9973 ev

!    total energy              =     -42.59870787 Ry
     estimated scf accuracy    <          1.8E-11 Ry
     smearing contrib. (-TS)   =      -0.00699569 Ry
     internal energy E=F+TS    =     -42.59171218 Ry

     The total energy is F=E-TS. E is the sum of the following terms:
     one-electron contribution =     -55.01099968 Ry
     hartree contribution      =      29.00237661 Ry
     xc contribution           =      -7.86819064 Ry
     ewald contribution        =       0.88283370 Ry
     Dispersion Correction     =      -0.00000248 Ry
     one-center paw contrib.   =      -9.59772969 Ry

     convergence has been achieved in  35 iterations

     negative rho (up, down):  8.838E-03 0.000E+00

     Forces acting on atoms (cartesian axes, Ry/au):

     atom    1 type  1   force =    -0.00416514    0.00000002   -0.00000003
     atom    2 type  2   force =     0.00416514   -0.00000002    0.00000003

     Total force =     0.004165     Total SCF correction =     0.000008
     Energy error            =      3.9E-04 Ry
     Gradient error          =      4.2E-03 Ry/Bohr

     number of scf cycles    =  14
     number of bfgs steps    =  13

     energy             old  =     -42.5983164217 Ry
     energy             new  =     -42.5987078660 Ry

     CASE: energy            _new < energy            _old

     new trust radius        =       0.0042452850 bohr
     new conv_thr            =            3.9E-12 Ry


ATOMIC_POSITIONS (angstrom)
H             0.0000000000        0.0000000000        0.0000000000    0   0   0
O             0.9879443841        0.0000000000        0.0000000000    1   0   0



     Writing config-only to output data dir ./pwscf.save/
     NEW-OLD atomic charge density approx. for the potential

     negative rho (up, down):  8.871E-03 0.000E+00

     total cpu time spent up to now is      708.1 secs

     Self-consistent Calculation

     iteration #  1     ecut=    60.00 Ry     beta= 0.50
     Davidson diagonalization with overlap
     ethr =  1.00E-06,  avg # of iterations =  3.0

     Threshold (ethr) on eigenvalues was too large:
     Diagonalizing with lowered threshold

     Davidson diagonalization with overlap
     ethr =  5.28E-08,  avg # of iterations =  4.0

     negative rho (up, down):  8.848E-03 0.000E+00

     total cpu time spent up to now is      711.4 secs

     total energy              =     -42.59871630 Ry
     estimated scf accuracy    <       0.00000326 Ry

     iteration #  2     ecut=    60.00 Ry     beta= 0.50
     Davidson diagonalization with overlap
     ethr =  4.66E-08,  avg # of iterations =  2.0

     negative rho (up, down):  8.839E-03 0.000E+00

     total cpu time spent up to now is      713.2 secs

     total energy              =     -42.59871678 Ry
     estimated scf accuracy    <       0.00000043 Ry

     iteration #  3     ecut=    60.00 Ry     beta= 0.50
     Davidson diagonalization with overlap
     ethr =  6.07E-09,  avg # of iterations =  4.0

     negative rho (up, down):  8.840E-03 0.000E+00

     total cpu time spent up to now is      715.3 secs

     total energy              =     -42.59871702 Ry
     estimated scf accuracy    <       0.00000045 Ry

     iteration #  4     ecut=    60.00 Ry     beta= 0.50
     Davidson diagonalization with overlap
     ethr =  6.07E-09,  avg # of iterations =  2.0

     negative rho (up, down):  8.835E-03 0.000E+00

     total cpu time spent up to now is      717.1 secs

     total energy              =     -42.59871713 Ry
     estimated scf accuracy    <       0.00000005 Ry

     iteration #  5     ecut=    60.00 Ry     beta= 0.50
     Davidson diagonalization with overlap
     ethr =  6.93E-10,  avg # of iterations =  5.0

     negative rho (up, down):  8.833E-03 0.000E+00

     total cpu time spent up to now is      719.3 secs

     total energy              =     -42.59871717 Ry
     estimated scf accuracy    <       0.00000077 Ry

     iteration #  6     ecut=    60.00 Ry     beta= 0.50
     Davidson diagonalization with overlap
     ethr =  6.93E-10,  avg # of iterations =  4.0

     negative rho (up, down):  8.832E-03 0.000E+00

     total cpu time spent up to now is      721.5 secs

     total energy              =     -42.59871716 Ry
     estimated scf accuracy    <       0.00000016 Ry

     iteration #  7     ecut=    60.00 Ry     beta= 0.50
     Davidson diagonalization with overlap
     ethr =  6.93E-10,  avg # of iterations =  1.0

     negative rho (up, down):  8.832E-03 0.000E+00

     total cpu time spent up to now is      723.2 secs

     total energy              =     -42.59871714 Ry
     estimated scf accuracy    <       0.00000006 Ry

     iteration #  8     ecut=    60.00 Ry     beta= 0.50
     Davidson diagonalization with overlap
     ethr =  6.93E-10,  avg # of iterations =  4.0

     negative rho (up, down):  8.832E-03 0.000E+00

     total cpu time spent up to now is      725.3 secs

     total energy              =     -42.59871718 Ry
     estimated scf accuracy    <       0.00000002 Ry

     iteration #  9     ecut=    60.00 Ry     beta= 0.50
     Davidson diagonalization with overlap
     ethr =  3.23E-10,  avg # of iterations =  1.0

     negative rho (up, down):  8.832E-03 0.000E+00

     total cpu time spent up to now is      727.0 secs

     total energy              =     -42.59871718 Ry
     estimated scf accuracy    <          9.0E-09 Ry

     iteration # 10     ecut=    60.00 Ry     beta= 0.50
     Davidson diagonalization with overlap
     ethr =  1.29E-10,  avg # of iterations =  1.0

     negative rho (up, down):  8.832E-03 0.000E+00

     total cpu time spent up to now is      728.8 secs

     total energy              =     -42.59871718 Ry
     estimated scf accuracy    <          7.1E-09 Ry

     iteration # 11     ecut=    60.00 Ry     beta= 0.50
     Davidson diagonalization with overlap
     ethr =  1.02E-10,  avg # of iterations =  1.0

     negative rho (up, down):  8.832E-03 0.000E+00

     total cpu time spent up to now is      730.5 secs

     total energy              =     -42.59871718 Ry
     estimated scf accuracy    <          5.6E-09 Ry

     iteration # 12     ecut=    60.00 Ry     beta= 0.50
     Davidson diagonalization with overlap
     ethr =  7.99E-11,  avg # of iterations =  2.0

     negative rho (up, down):  8.832E-03 0.000E+00

     total cpu time spent up to now is      732.4 secs

     total energy              =     -42.59871718 Ry
     estimated scf accuracy    <          6.3E-11 Ry

     iteration # 13     ecut=    60.00 Ry     beta= 0.50
     Davidson diagonalization with overlap
     ethr =  9.06E-13,  avg # of iterations =  5.0

     negative rho (up, down):  8.832E-03 0.000E+00

     total cpu time spent up to now is      734.7 secs

     total energy              =     -42.59871718 Ry
     estimated scf accuracy    <          1.9E-10 Ry

     iteration # 14     ecut=    60.00 Ry     beta= 0.50
     Davidson diagonalization with overlap
     ethr =  9.06E-13,  avg # of iterations =  1.0

     negative rho (up, down):  8.832E-03 0.000E+00

     total cpu time spent up to now is      736.4 secs

     total energy              =     -42.59871718 Ry
     estimated scf accuracy    <          9.1E-11 Ry

     iteration # 15     ecut=    60.00 Ry     beta= 0.50
     Davidson diagonalization with overlap
     ethr =  9.06E-13,  avg # of iterations =  4.0

     negative rho (up, down):  8.832E-03 0.000E+00

     total cpu time spent up to now is      738.4 secs

     total energy              =     -42.59871718 Ry
     estimated scf accuracy    <          5.6E-12 Ry

     iteration # 16     ecut=    60.00 Ry     beta= 0.50
     Davidson diagonalization with overlap
     ethr =  1.00E-13,  avg # of iterations =  5.0

     negative rho (up, down):  8.832E-03 0.000E+00

     total cpu time spent up to now is      740.5 secs

     total energy              =     -42.59871718 Ry
     estimated scf accuracy    <          9.0E-12 Ry

     iteration # 17     ecut=    60.00 Ry     beta= 0.50
     Davidson diagonalization with overlap
     ethr =  1.00E-13,  avg # of iterations =  2.0

     negative rho (up, down):  8.832E-03 0.000E+00

     total cpu time spent up to now is      742.4 secs

     total energy              =     -42.59871718 Ry
     estimated scf accuracy    <          4.0E-12 Ry

     iteration # 18     ecut=    60.00 Ry     beta= 0.50
     Davidson diagonalization with overlap
     ethr =  1.00E-13,  avg # of iterations =  1.0

     negative rho (up, down):  8.832E-03 0.000E+00

     total cpu time spent up to now is      744.0 secs

     End of self-consistent calculation

          k = 0.0000 0.0000 0.0000 ( 61161 PWs)   bands (ev):

   -24.7382 -11.3688  -8.1239  -8.1239  -0.8056   0.0251   0.5767   0.5852

     the Fermi energy is    -7.9944 ev

!    total energy              =     -42.59871718 Ry
     estimated scf accuracy    <          8.9E-13 Ry
     smearing contrib. (-TS)   =      -0.00699569 Ry
     internal energy E=F+TS    =     -42.59172149 Ry

     The total energy is F=E-TS. E is the sum of the following terms:
     one-electron contribution =     -54.98722435 Ry
     hartree contribution      =      28.99122466 Ry
     xc contribution           =      -7.86618542 Ry
     ewald contribution        =       0.86821044 Ry
     Dispersion Correction     =      -0.00000249 Ry
     one-center paw contrib.   =      -9.59774433 Ry

     convergence has been achieved in  18 iterations

     negative rho (up, down):  8.832E-03 0.000E+00

     Forces acting on atoms (cartesian axes, Ry/au):

     atom    1 type  1   force =    -0.00020850    0.00000006    0.00000003
     atom    2 type  2   force =     0.00020850   -0.00000006   -0.00000003

     Total force =     0.000209     Total SCF correction =     0.000001
     Energy error            =      9.3E-06 Ry
     Gradient error          =      2.1E-04 Ry/Bohr

     bfgs converged in  15 scf cycles and  14 bfgs steps
     (criteria: energy <  1.0E-04 Ry, force <  1.0E-03 Ry/Bohr)

     End of BFGS Geometry Optimization

     Final energy             =     -42.5987171771 Ry

     File ./pwscf.bfgs deleted, as requested
Begin final coordinates

ATOMIC_POSITIONS (angstrom)
H             0.0000000000        0.0000000000        0.0000000000    0   0   0
O             0.9879443841        0.0000000000        0.0000000000    1   0   0
End final coordinates



     Writing all to output data dir ./pwscf.save/

     init_run     :      2.61s CPU      2.51s WALL (       1 calls)
     electrons    :   1376.42s CPU    710.92s WALL (      15 calls)
     update_pot   :      9.90s CPU     11.04s WALL (      14 calls)
     forces       :     21.87s CPU     15.56s WALL (      15 calls)
     force_london :      0.01s CPU      0.01s WALL (      15 calls)

     Called by init_run:
     wfcinit      :      0.76s CPU      0.56s WALL (       1 calls)
     potinit      :      0.55s CPU      0.63s WALL (       1 calls)
     hinit0       :      0.87s CPU      0.93s WALL (       1 calls)

     Called by electrons:
     c_bands      :    628.71s CPU    260.35s WALL (     361 calls)
     sum_band     :    422.27s CPU    155.00s WALL (     361 calls)
     v_of_rho     :    155.37s CPU    166.77s WALL (     375 calls)
     newd         :    110.89s CPU     85.05s WALL (     375 calls)
     PAW_pot      :      8.07s CPU      7.64s WALL (     389 calls)
     mix_rho      :     48.35s CPU     40.55s WALL (     361 calls)
     energy_londo :      0.07s CPU      0.02s WALL (      15 calls)

     Called by c_bands:
     init_us_2    :     33.47s CPU      8.23s WALL (     737 calls)
     init_us_2:cp :     33.46s CPU      8.22s WALL (     737 calls)
     regterg      :    594.27s CPU    251.76s WALL (     361 calls)

     Called by *egterg:
     rdiaghg      :      0.94s CPU      0.17s WALL (    1356 calls)
     h_psi        :    493.64s CPU    234.37s WALL (    1372 calls)
     s_psi        :      4.78s CPU      0.81s WALL (    1372 calls)
     g_psi        :      9.06s CPU      1.93s WALL (    1010 calls)

     Called by h_psi:
     h_psi:calbec :      6.16s CPU      1.84s WALL (    1372 calls)
     vloc_psi     :    476.36s CPU    230.43s WALL (    1372 calls)
     add_vuspsi   :      5.99s CPU      0.93s WALL (    1372 calls)

     General routines
     calbec       :      8.75s CPU      2.60s WALL (    1807 calls)
     fft          :    113.80s CPU    107.17s WALL (    3525 calls)
     ffts         :     31.18s CPU     12.01s WALL (     361 calls)
     fftw         :    521.98s CPU    245.38s WALL (    9558 calls)

     Parallel routines

     PWSCF        :  23m38.31s CPU  12m25.25s WALL


   This run was terminated on:  15:23:22   5Sep2022            

=------------------------------------------------------------------------------=
   JOB DONE.
=------------------------------------------------------------------------------=
