LAMMPS data file via write_data, version 10 Sep 2025, timestep = 20000, units = metal

192 atoms
3 atom types

0.5657368261908085 13.49928317380931 xlo xhi
0.5657368261908085 13.49928317380931 ylo yhi
0.5657368261908085 13.49928317380931 zlo zhi

Masses

1 1.008
2 15.999
3 12.011

Atoms # atomic

1 2 10.215927356930608 6.1114925704875755 10.18717706078588 0 0 0
2 1 10.097900380852069 6.585542081691938 9.308428611883421 0 0 0
3 1 10.59430987328324 5.244009725049396 9.969231450825776 0 0 0
4 2 4.588530752405136 8.583471626852578 7.170209211515344 0 0 0
5 1 3.8791613301763435 8.24255545103863 7.7866171202742125 0 0 0
6 1 4.44454522583576 9.544534904223358 7.224311779578792 0 0 0
7 2 3.2892213130133516 12.659990313180954 9.564991815970739 0 0 0
8 1 3.323257189172409 11.99914892600269 8.791208716869647 0 0 0
9 1 2.396110630724875 12.543475455126725 9.998075183462928 0 0 0
10 2 5.08084983335819 10.6111335093519 10.067222266723514 0 0 -1
11 1 4.749064487099993 11.541898183857368 10.070861580906701 0 0 -1
12 1 5.309472064098607 10.376518002915947 10.968774414675337 0 0 -1
13 2 2.5193391808357837 11.074251094158647 6.898116324080647 0 0 0
14 1 2.1231523518323936 11.976848087439347 6.757857884660921 0 0 0
15 1 1.7403751398241203 10.501388741418692 7.255249858355841 0 0 0
16 2 9.79293484344327 4.2266531806826055 6.999513266925912 0 0 0
17 1 9.746145912576877 3.974592236749305 7.881211200985851 0 0 0
18 1 9.015633877594913 4.812928118083325 6.719511911489386 0 0 0
19 2 10.392599081825118 3.508551468362925 9.50702535130031 0 0 0
20 1 11.253642692735584 3.182588667576972 9.293740049839016 0 0 0
21 1 9.928157204633653 2.8533027872662937 10.05925157267875 0 0 0
22 2 12.158073711973563 4.537719587561799 5.396883442898999 0 0 0
23 1 12.362894079030177 5.104572228946613 4.605515454295375 0 0 0
24 1 11.259344791398668 4.84934654818425 5.71395934187746 0 0 0
25 2 5.163832047400408 7.669107923646479 3.3958097278000516 0 0 0
26 1 5.836815744062196 7.501597523040536 2.764697936042132 0 0 0
27 1 4.40535973196206 7.090026317304304 2.9928861959458173 0 0 0
28 2 1.5225224872095189 7.617252299873003 11.913069978481044 0 0 0
29 1 1.7052243119848653 7.62398397270757 12.859433399490397 0 0 0
30 1 1.879573599721839 8.449327741959465 11.462260763018886 0 0 0
31 2 11.474130737419781 10.646049046205942 9.098449109677853 0 0 0
32 1 11.60335399285525 10.7924176521574 10.024854429602378 0 0 0
33 1 11.084915350658935 11.393251258484115 8.693174289538561 0 0 0
34 2 7.182664179321584 8.603637068529407 12.924064387302616 0 0 0
35 1 7.920153533746199 8.687967776965131 0.601305150785489 0 0 1
36 1 7.574793808739241 8.113520655734419 12.168852539308268 0 0 0
37 2 10.017323208587545 8.673472934895939 1.224099575211392 0 0 0
38 1 9.80037096461505 7.801088401029443 1.6300587067806238 0 0 0
39 1 10.583231588679318 8.439198749424396 13.401606205183068 0 0 -1
40 2 10.015850713908247 3.853856288944695 2.201333270850433 0 0 0
41 1 10.288421299266467 3.2987762941489747 2.9297434987217437 0 0 0
42 1 9.78428704723594 3.191933048953702 1.4825331320793518 0 0 0
43 2 2.3707297588784355 4.512120757663645 9.063288980298188 1 0 0
44 1 2.312212981596493 4.743292077063438 10.012158479905894 1 0 0
45 1 2.9641363766754183 3.7604044738334896 9.01994687143588 1 0 0
46 2 7.036636008399047 13.233612692059777 7.402033096389956 0 0 0
47 1 6.604989700244345 12.564988852883184 6.841385149294681 0 0 0
48 1 7.199036538530778 1.0239068344770157 6.7460698470417215 0 1 0
49 2 7.198562372803921 9.49079262142697 8.022036625972035 0 0 0
50 1 6.664250086823459 9.057373375783467 7.3674838489320225 0 0 0
51 1 6.572323080302904 9.885487739047925 8.682727396980777 0 0 0
52 2 6.168283768431605 1.2049775245608765 9.882408550231572 0 0 0
53 1 5.416107647741741 1.8235360228938609 9.840082812207267 0 0 0
54 1 6.379507062721114 0.906319146430391 8.97763454667245 0 0 0
55 2 6.94314136044533 6.080886832580032 1.7135808065676201 0 0 0
56 1 7.629141817223125 6.498355660638651 2.238096947784348 0 0 0
57 1 6.993807475151631 6.629016934479929 0.9184117030622155 0 0 0
58 2 8.849414170344453 1.3363749569616914 10.616668214829453 0 1 0
59 1 7.913368557881203 1.5182049013238248 10.369861198887365 0 1 0
60 1 9.196876778750775 0.6662578837141343 9.992458511968987 0 1 0
61 2 9.54702114364687 7.996526201982095 8.21719550027417 0 0 0
62 1 10.257053028816767 8.65864118963376 8.038585110651043 0 0 0
63 1 8.714591445718765 8.392281440068507 8.247039959585221 0 0 0
64 2 10.49314299363628 2.11670158367837 4.394895670321582 0 0 0
65 1 11.045296310432597 2.727117309467765 4.936232401193336 0 0 0
66 1 9.623272627788735 2.1773825472848025 4.783574545733634 0 0 0
67 2 3.8124720939988754 2.1551039988431273 8.249204791021679 0 0 0
68 1 3.254817854423309 1.954803793512127 7.500073567793379 0 0 0
69 1 3.547411976934531 1.4357278770314243 8.844557425477028 0 0 0
70 2 5.550646096427549 3.879976789528796 5.946179921345783 0 0 0
71 1 5.82800293070844 4.846900487396699 5.926491130558017 0 0 0
72 1 5.309087074475072 3.647660121915826 6.830874160671051 0 0 0
73 2 7.960594466237461 2.379623359622975 5.803432258331975 0 0 0
74 1 8.50871917777007 2.9558867619350084 6.3399144399694 0 0 0
75 1 7.167932758629562 2.8705920423225866 5.619264628593167 0 0 0
76 2 8.655564441108508 6.337647264188446 5.96512895120841 0 0 0
77 1 7.663195224066286 6.617673693049477 6.006292827047774 0 0 0
78 1 9.073436855402287 6.8557211556569175 6.613279753909526 0 0 0
79 2 6.071361650670545 6.711774296630289 5.671328898015923 0 0 0
80 1 5.478756218264414 7.382143012733788 6.139659024908095 0 0 0
81 1 6.080896974747888 6.931728152902441 4.7003506520827445 0 0 0
82 2 11.908413237778277 5.62824181326138 2.6422617149448455 -1 1 0
83 1 11.268202794857874 4.889266329203242 2.38729505891971 -1 1 0
84 1 11.216401535657141 6.136239866483493 3.03107355317262 -1 1 0
85 2 1.38362070589288 12.067479496064754 12.302488486226084 0 -1 0
86 1 13.481997082426895 11.60705748012829 12.443549080027294 -1 -1 0
87 1 1.8228350481982973 11.482841291179817 11.657151786138973 0 -1 0
88 2 3.771750416607895 10.104270675149362 4.2715496809730675 0 0 0
89 1 4.207798633045287 9.239855876388953 4.203623063200832 0 0 0
90 1 3.2841089172620226 10.180020888023439 5.1115169480826985 0 0 0
91 2 13.070318549225767 3.1145619711880363 7.847786940709617 0 0 0
92 1 12.823949603772482 3.631531499901433 7.0603002277008855 0 0 0
93 1 0.8337837682739567 3.6613442663459055 8.24205875493465 1 0 0
94 2 2.472078835796097 9.961083391560681 10.627570475343617 0 0 0
95 1 2.016838818496714 9.786260338528377 9.708333992080382 0 0 0
96 1 3.4237753978734036 9.920144713392585 10.383271924491265 0 0 0
97 2 3.2146105075812526 11.834546079240466 1.5807700529281468 0 0 0
98 1 2.4221753042858296 11.785020768931275 1.0485900946066884 0 0 0
99 1 3.139749436931973 11.230651019513928 2.2807418354665985 0 0 0
100 2 9.27269526321288 6.49815699492497 3.3070438726149245 0 0 0
101 1 9.248050707520907 5.540665862868476 2.9197312432192994 0 0 0
102 1 9.02862427975732 6.5278843503373 4.274719725515487 0 0 0
103 2 0.8105762471712694 9.407906265007885 8.113180621256303 1 0 0
104 1 12.824474219644657 9.759057830854326 8.250360932663224 0 0 0
105 1 0.8073721088572974 8.49293825324525 7.781856227632245 1 0 0
106 2 3.0479116823247008 7.024137151362613 8.833403099377161 0 0 0
107 1 3.143350923503923 6.14446375933611 8.498342297887216 0 0 0
108 1 2.1010659197066563 7.075821375942449 9.06807745634891 0 0 0
109 2 4.817114102781957 9.762693414837461 12.711480770751262 0 0 0
110 1 4.370598831728742 10.400000060437096 13.264999110627105 0 0 0
111 1 5.654129610982565 9.565778492120337 13.168793632055044 0 0 0
112 2 13.057400145658503 6.617909220507307 8.646621793047096 0 0 -1
113 1 13.143083250735357 5.95191713065415 9.38040235395228 0 0 -1
114 1 12.46040429626275 7.237339901873476 9.09276907748987 0 0 -1
115 2 11.582232157001135 7.986541060097168 11.898197430719447 0 0 0
116 1 12.482929746980798 7.624543642015558 11.987210680313305 0 0 0
117 1 11.079922841693453 7.291403610106981 11.400338425909103 0 0 0
118 2 9.31370171492185 12.382938956722038 8.411556794762179 0 0 0
119 1 8.99741416261039 11.54116770915203 8.740943380752043 0 0 0
120 1 8.55676302920886 12.707950955638607 7.925595222477707 0 0 0
121 2 3.332362659154412 6.190512039491013 2.02095171384916 0 0 0
122 3 3.3531099034302834 3.70049920244034 1.9846778325339007 0 0 0
123 3 3.6987262987835865 5.01369574009315 1.3069870078031014 0 0 0
124 1 2.5034990427638197 6.574259329055466 1.8658517987011805 0 0 0
125 1 3.4369715076552074 3.851795972775039 3.087603339383117 0 0 0
126 1 3.9632363048378636 2.884685876636444 1.6181803346725547 0 0 0
127 1 2.3289713046764366 3.4072199595090504 1.7809847353244987 0 0 0
128 1 4.753892492505117 5.09261337252282 1.247734763925398 0 0 0
129 1 3.3782777266361603 5.044447831256075 13.182443679339235 0 0 -1
130 2 0.9401247352703286 7.271096149645143 1.806925117752865 1 0 0
131 3 0.8759221464527717 8.3943530300168 3.904733012622818 1 0 0
132 3 0.6348934913214528 8.505306272984225 2.412116407120894 1 0 0
133 1 13.171095314325528 6.584107283457714 2.1563549748052795 0 0 0
134 1 13.162694873630697 7.554887102202464 4.2340361196104945 0 0 0
135 1 0.6027670871201064 9.316730084127203 4.463651533492878 1 0 0
136 1 1.8847406116986667 8.234246800396596 4.25059747468536 1 0 0
137 1 12.524484002235816 8.669774369056212 2.1209125189475415 0 0 0
138 1 1.1564945800348738 9.357037836431864 1.954134203223712 1 0 0
139 2 0.63266143257371 5.179204590991558 11.045216205325561 0 0 0
140 3 0.684157929220122 2.889841777925853 11.8560210186128 0 0 0
141 3 13.248961406381799 4.302408545644119 12.148543117601973 -1 0 0
142 1 0.982162729635255 6.094249774515034 11.383017886772153 0 0 0
143 1 1.704540142966044 2.8196557868837187 11.682233518931843 0 0 0
144 1 13.155507159496862 2.6924879006210984 10.85805975621758 -1 0 0
145 1 13.288133297773586 2.1525587533538784 12.562978170686652 -1 0 0
146 1 12.172693514020326 4.326845677678492 12.372343498488064 -1 0 0
147 1 0.7859909325366399 4.580778613982379 13.081926959763974 0 0 0
148 2 1.5211685500187357 1.0959456939340377 6.696521024172898 0 0 0
149 3 0.7993847432522819 0.8886625369608993 4.305361445333904 0 0 0
150 3 1.9342566078656303 1.299774203128049 5.324310856696432 0 0 0
151 1 0.9832878761098651 1.8157083514099674 7.02168906919201 0 0 0
152 1 13.339170808964996 12.877327861903701 4.690494648998156 -1 -1 0
153 1 1.1506177236722293 0.6802065218170068 3.3031094305046658 0 0 0
154 1 13.028110885181448 1.675846756853242 4.311733316866336 -1 0 0
155 1 2.8082065352835244 0.6405818564564433 5.125073210774815 0 0 0
156 1 2.1038604834316454 2.394701538325118 5.212064784083252 0 0 0
157 2 7.717521004650185 6.4932093497496846 11.261747430880861 0 0 0
158 3 6.152817883198617 5.035892291786324 10.273127808858632 0 0 0
159 3 6.601834548847371 6.456021343005813 10.42068291715905 0 0 0
160 1 8.514107540430182 6.113668507550744 10.867692176084802 0 0 0
161 1 7.000234459217197 4.36828119295298 10.172983715096835 0 0 0
162 1 5.6456389474586315 5.030148284162666 9.370362722698758 0 0 0
163 1 5.536816392205612 4.742573504031276 11.176189533734561 0 0 0
164 1 6.945567058813406 6.859397932410533 9.501590243150181 0 0 0
165 1 5.830479048742085 7.0043030263493975 10.941442717175565 0 0 0
166 2 8.897103402804484 2.327291290136641 0.5723141655741354 0 0 1
167 3 6.519294361893388 2.163198695117089 0.7815758846707476 0 0 1
168 3 7.695292279350841 3.0534446649403812 0.6045049431808884 0 0 1
169 1 9.066520853600665 1.758528669964681 12.744800924405139 0 0 0
170 1 6.453053484325375 1.3566812088484619 13.000215862535562 0 0 0
171 1 5.6432987276758935 2.844967319878978 0.6385343585449501 0 0 1
172 1 6.438527549428007 1.7216703315347122 1.8032775419426748 0 0 1
173 1 7.674426762606691 3.6402783514385866 12.638251215207813 0 0 0
174 1 7.7352138636403724 3.738028682408242 1.48984353707318 0 0 1
175 2 6.058380717604123 11.43349491978604 5.303929996080402 0 0 0
176 3 7.343863796047512 10.61955576817895 3.343267019331381 0 0 0
177 3 7.298364893143634 11.401954191488644 4.647508280159898 0 0 0
178 1 5.337586504767401 10.90895919610359 4.897808307828874 0 0 0
179 1 7.077153138482337 9.58155575213487 3.4216073311392465 0 0 0
180 1 8.437027854671593 10.61417648885797 2.9979625511469785 0 0 0
181 1 6.8383005604639875 11.113000769237466 2.4601287535046095 0 0 0
182 1 7.952540037911586 10.844552034294235 5.375887718468093 0 0 0
183 1 7.719560340336436 12.455048830226682 4.571145680822024 0 0 0
184 2 11.60521291973857 10.78058048843545 12.102549548333593 0 0 0
185 3 11.293126837415116 11.765703862191847 1.498836701521757 0 0 1
186 3 10.779999011531542 11.616389173573417 12.92046242831311 0 0 0
187 1 11.384979194628107 9.803055130108664 12.056053778965897 0 0 0
188 1 11.13921546617432 12.678178928286592 2.05433026314502 0 0 1
189 1 12.372691347079876 11.684124149791257 1.4515825041001391 0 0 1
190 1 11.005127784429286 10.969781463845898 2.1847574249802184 0 0 1
191 1 9.848174870829226 11.101299546015245 12.913851981059524 0 0 0
192 1 10.681150937963592 12.559062701615073 12.499030238790187 0 0 0

Velocities

1 -6.644150080456566 1.5841087006261176 5.402328707847976
2 12.203912585375514 5.222504173026145 7.806828892627645
3 13.770139518619857 -7.097582808970034 19.66847791674272
4 -4.280285529727626 -4.128097417209125 -1.4104645098832027
5 13.858207141805826 -5.59425891377611 -0.5529502206585987
6 -10.270295443863406 -14.036881219107576 5.5180912945543055
7 -4.922488006897103 -1.3773827675720969 -4.862479216028569
8 -41.37065341444581 -5.809750214363318 -9.017373051606928
9 14.148543628285266 14.804570033149398 -14.314012044747003
10 2.6938083937077844 1.5580274015137063 3.3302091946146546
11 -15.200955576248438 -3.362423801977637 -13.381791431543535
12 -7.821923633360873 9.808281673758396 4.611021755177723
13 -0.004394850043135946 -2.30627705804505 4.797949046040077
14 -23.88225419645849 -4.157912460760986 -4.090574640210464
15 2.918427718971875 -9.991592573608028 1.1903085486974776
16 1.3059834875306902 -2.866042753428805 0.6474978506034798
17 -20.29791952899688 16.664212736264048 -2.080267864175148
18 -44.49058725314385 -11.009615282414698 -4.2259645165703255
19 -2.3634534806000276 2.894064507886434 0.21991318703038606
20 2.5722493196838174 10.557715133668488 -5.202044542289846
21 -10.292224074323308 -1.588484853787158 33.0955314062737
22 1.6175491791543464 -6.478228871138078 -5.987168472594224
23 -11.677536133592236 20.17498220572438 -32.97008298709466
24 18.269484498475673 -4.13455322512388 0.7697203389782092
25 2.760926314146323 -0.728399354897265 -1.5982691689964885
26 21.064394104726627 -19.624714580049215 5.929941925743107
27 28.656778309818574 -1.309361379978087 -9.790930835389648
28 3.977803634844515 7.553031701359298 3.583111212978465
29 10.50607848673417 6.034702683221536 -9.921656545633958
30 -24.07831262524556 -4.03499203310863 9.081357241564726
31 2.734585021991137 5.308374130449522 1.589393838877138
32 -40.919863835348686 17.28887845436457 8.46147081108422
33 32.57602974113872 -4.814061330196167 -10.019584991568108
34 -1.9328839497981731 1.7616803631444473 -3.9719796992739753
35 15.970838866578797 -13.084314099588946 -5.8305240970759185
36 -0.8146573904604463 31.35932877722322 5.501258944426358
37 6.459462056123365 4.9649475207704015 -4.3950804312729375
38 -13.328691377030962 -23.31082280038874 -17.030551517536644
39 17.26307855947278 -2.7477515585591337 -11.490115286624714
40 -3.855955247469191 -5.380270162693373 -5.186039134000129
41 -24.106047414066815 -5.1848776975422055 -9.762578718021185
42 15.075474951591726 2.074145693504629 -4.725886655141378
43 1.9723326693006629 2.6010406853800174 -4.301657094436407
44 15.291481974882853 -6.178358184924426 4.236077984561562
45 -11.829000125060304 25.54488098630628 3.1186864314310774
46 -5.3917877367411995 1.3655719950809564 -3.140169946398467
47 -0.6470993698792805 -24.29651072684333 -26.501864643112267
48 3.4566982832314572 -2.018472075249579 -16.608484256876057
49 -9.486705789620293 4.177329473158797 -8.209864572057171
50 21.247430024117012 30.783705673766942 -20.236380833193166
51 -10.527768392369218 29.627199840990507 17.32551304826971
52 3.5096050076495793 5.5450203893105465 -6.031686087087237
53 6.049793355199591 8.616760810796256 -7.258600126906197
54 22.704131038170885 -2.466043933245792 2.569804869657979
55 -6.492833913714408 4.070341542393924 -5.037902183475981
56 -10.646684915048429 4.574524516516108 11.090231029315133
57 3.196446419897486 -3.803156257562803 -1.5019950976094103
58 -4.391491857487383 -4.263651038251932 -3.17061078479763
59 14.21689086606907 -8.68842798009649 29.453400889349894
60 -7.452576376723249 7.741187768743636 -7.099408444496536
61 -1.234951537088476 3.3761246795247 -0.8880275792233546
62 -10.548150076546198 7.132092541773294 -3.1453720292640264
63 8.990257282511346 -2.1436134449863604 -23.45216093021653
64 1.228617141162378 -2.0379971900403273 1.7922535889993634
65 -11.729540388129745 -0.015407430790354391 -35.13304656638962
66 24.44690133192177 -3.460426356388594 -3.903310654196281
67 2.817758515614996 -8.143203034273741 -4.772164692585805
68 -2.107975573325635 8.799367558497957 -2.457491745520575
69 12.519926322489761 25.91795927224035 5.62502612451916
70 0.4848802798123224 0.9892076301097927 5.699923605669933
71 -15.608143689866854 -4.160091156808049 -11.844247088392716
72 -12.97676730047358 -2.8013611240038676 -4.93076456257357
73 3.2771957089351575 -0.8767924450010055 9.14305616574047
74 20.018902528375648 21.66129378598546 16.380213430575115
75 32.672346279528725 4.008002952016249 1.7574941711048278
76 0.7792760748949115 -6.201526855865416 -0.6375624690438615
77 3.446744642839935 -9.252052236700637 9.031020677185714
78 9.854129470217968 18.63221478860984 -23.28659908450548
79 5.591067679375925 6.860200298427561 1.0777371268884364
80 14.454207956236363 -24.98355481789657 -5.5972398266183525
81 -20.989722716936534 29.776739323181125 25.01718588544569
82 4.114183641890212 -2.534259534281262 -0.6729807324935513
83 -8.433801928004995 9.874553863468359 9.894370408443674
84 25.366079143716142 2.405454474056042 -10.103582749150664
85 -1.3163746973230572 -1.975482341477802 -7.134812366131304
86 9.730383454229075 14.048169411492216 -1.861182788956881
87 16.37294502704167 14.638713786445937 18.853265176817253
88 -4.377369359463356 5.921027166216412 -5.261300682823772
89 3.0279104372476806 2.99870572597272 1.7755202175342197
90 -5.535756650132276 -20.76390005085548 6.864779074739439
91 -3.6944470136058762 -3.5051842807041695 4.657414363771216
92 -7.022078931505709 7.427245308786745 11.593050000747066
93 -40.789700874767476 33.407213468331996 -10.015612014718823
94 -4.135707270041564 0.44829291078403594 -2.148457443863621
95 8.713703460632411 10.539764432079092 -19.976974019253465
96 9.878265517124584 21.67519745509608 2.760542003106836
97 1.7356297729348766 0.29223741007730997 2.538473025260311
98 12.206931246454696 7.133809278411094 0.6522958313766859
99 -10.751241082429964 -0.9844319604058684 18.711942985147935
100 2.7048111976343288 -7.146016876195396 -1.9940557828075884
101 0.278514593298415 -21.45630854972989 1.5708262372305983
102 11.675180954433085 -6.734448964163795 6.847721859648931
103 -1.3352569457625818 -9.481612563853634 1.420988675018011
104 7.276097757547622 3.7684278183649447 18.68963657246147
105 30.88975244796862 -33.31969976739136 24.045057944965173
106 -0.16827123750767756 3.3780701634002805 -4.494544410125626
107 -10.123336666336007 30.50530563675116 13.352952965669925
108 -18.393699308696238 32.81677075507009 -21.451242983387512
109 -0.02389056773947908 -3.6766558356589214 3.5001239603427483
110 6.955416838906468 18.478768643140395 24.65528717819211
111 10.224835204843515 25.051034152982094 4.409099465577926
112 9.399179367973026 -0.4600453497659187 -0.5085540748331513
113 -7.362820030353512 -3.1538074072489115 -17.156838812794284
114 -26.250811222824854 -13.303471445913418 -41.061798400791695
115 -2.7601384787289738 1.2467895175995407 -1.9625399224884306
116 -9.303367501187887 -12.615656058094064 -0.19730449245609336
117 -12.907781992814252 23.5721365606004 15.8176818893459
118 0.5870409430158948 6.70720125989123 -8.77767822350372
119 -27.75952541998316 -2.6563408705913596 11.617497471983352
120 -1.180049707914028 9.59864821675544 -2.3566435188322497
121 4.011250488959618 -7.134033201829767 -1.9423234612767162
122 4.503209146120868 2.5560582592362198 6.704299386022032
123 -4.678114968108944 -2.745688526709896 10.48001656716084
124 -0.13799548966021274 -14.453404086150487 -12.19185672471172
125 -3.3452474143107658 20.521836632140356 -30.23203726725601
126 -10.285153539793662 -4.086244180568364 10.209016881876028
127 6.073562446735085 14.012215801019376 10.802697133311241
128 -25.648081094428683 0.6958386707053705 -0.19791864801435233
129 -13.664998844725483 -5.421461134160888 -43.01516212017593
130 -3.6863052299186854 4.791750253418283 7.006630927653657
131 3.08200052572313 3.892943642973868 3.2810246489564565
132 4.890332438341005 2.8118408805282002 0.9076499624671798
133 10.304489784305474 3.1594090905033148 0.5724615201088809
134 -17.77061618425111 -21.454156995234634 7.196264941427688
135 -8.18394363244649 -24.841578365322434 14.759942362458618
136 -0.7348590352034092 -7.360234977435879 8.31031071024777
137 18.82407583056607 33.61196095176315 7.306097511518723
138 26.286886032221204 -27.80781971640301 -4.467684776180166
139 1.511312581217269 1.2087160753839106 4.989682612334593
140 -0.14639578201534023 0.11679871231068437 4.655276143408075
141 0.6794608013816246 -8.865566456544832 4.351247203537047
142 1.9279767851169027 -30.188339318768435 -12.480467579239592
143 24.711865916677215 -32.83266843356856 10.376586712578453
144 -22.604503891332897 21.06838611691949 28.64793912658922
145 5.4862074072884 7.882161862571701 -0.10436678464408672
146 10.041875888391752 -3.94588212127824 8.831481999911778
147 24.50393021498478 -5.29852331875851 -25.708372295697117
148 -3.579295757995722 2.299055589802877 2.048977766644679
149 -5.514518519165989 -1.2946477790837043 1.886727296200971
150 3.431691825726897 -5.362618273860995 1.3776036245308378
151 -24.272289739970585 -18.431909420993883 -26.045195636241512
152 1.3318729500382807 -14.287171213203505 3.058998115597187
153 32.95594078768251 15.755838739583478 -7.965822228931336
154 27.754432635638693 11.538377333306205 -21.588180472466664
155 31.428654251086858 -10.040010027526412 1.549065217048815
156 -8.724739429211935 -6.356970317634658 -0.42398434475207075
157 -6.24706645707897 -4.178554023858186 2.625128083460282
158 -6.470529024201687 4.055321132026251 9.493272386555134
159 5.207761871908119 -5.3939488693436015 6.412174297650605
160 -1.4426848807028465 33.330549246934844 -3.5891251416957393
161 4.138307377013432 4.65931543670648 -4.194886524185234
162 10.877411397164984 -8.580943981133366 -9.456400040036911
163 5.147724221778432 12.250047781568608 -18.550698265890436
164 -18.204302496321425 13.031948514636044 -6.571490800918301
165 -7.489502588074823 -2.987326617094665 4.5464574706044125
166 -3.699148680849975 8.101630751923706 -2.4958912196326235
167 2.2473356015407293 0.311322107048186 -0.6296926237814207
168 2.062890730211511 10.512194136660337 3.0804990726547747
169 -0.10769904720637635 17.130127845634483 -20.405942780555037
170 -22.928729153498775 23.90120147395009 2.376172270097898
171 -10.042283873153709 3.271416264274367 29.538022380828387
172 16.53684756160771 -27.39656994590307 -2.7862595819083618
173 7.175830017966202 5.6061842097684815 31.09593134400438
174 -5.765287342202983 -30.030358445622916 -4.219909691812219
175 4.188963827522587 4.620104359857922 0.7476902247704659
176 -3.560264242669774 -3.033048542091697 2.2902524875429995
177 -0.15278859628187247 -2.483746921243798 2.09801220933451
178 -8.40002419449166 12.092316419411132 -30.713571779526884
179 11.812932901734115 4.289851003253749 -1.0075113874055073
180 -6.03570389238819 -7.824027595910377 2.596837245574935
181 0.9503396174386666 -16.140727702979966 -28.679444905372875
182 13.876340470273812 -16.761942420546077 -8.227216360745906
183 9.776327897276742 1.0605234936354582 27.888878182372135
184 -5.123335782981697 -3.6845433405929673 -0.2709495422652785
185 8.528264768726734 -10.711101585669784 -2.398000781085278
186 7.778393078960934 -5.883349115196958 1.6203843058871352
187 -14.237339007599328 -21.564036310738253 23.04494184083114
188 1.6906227563279537 11.116738798445242 17.135017546832206
189 1.3009244889186722 6.304778876970395 22.002958937286262
190 -4.005542549840785 0.758444350622192 -3.560013602246858
191 14.91889594666228 -21.55288256793535 -2.526288606889386
192 2.9846495470124403 4.098904919206279 3.3827518459394437
