LAMMPS data file via write_data, version 10 Sep 2025, timestep = 20000, units = metal

184 atoms
4 atom types

0.9550796503523298 13.141811349647625 xlo xhi
0.9550796503523298 13.141811349647625 ylo yhi
0.9550796503523298 13.141811349647625 zlo zhi

Masses

1 1.008
2 15.999
3 22.99
4 35.453

Atoms # atomic

1 2 11.856207042437829 12.963440027299612 12.826579495511908 0 0 0
2 1 11.604648282301142 12.737927928479007 11.905228158976305 0 0 0
3 1 11.083494120237487 12.76079074523437 1.1974849935763294 0 0 1
4 2 7.06430645510782 7.56733688681787 10.10410024859919 0 0 -1
5 1 7.3968174956050055 8.209022968998335 9.497750671810863 0 0 -1
6 1 6.566348197643209 8.108184633607694 10.785389097423455 0 0 -1
7 2 6.003266994268868 2.7861103723993024 1.1617460460590432 0 0 0
8 1 5.552432073646403 2.549933016839873 2.0448697081170537 0 0 0
9 1 6.911558306122938 2.605907447254731 1.3864526552039378 0 0 0
10 2 7.687095224847753 6.808409377780703 2.090397613681954 0 0 0
11 1 7.0254838789247716 7.517415143970237 2.037624643692233 0 0 0
12 1 7.536570841001581 6.270541610583523 2.9545474030710306 0 0 0
13 2 3.289380019878987 6.31445908754497 6.108201776316868 0 0 0
14 1 3.6781620255840015 5.843340004133074 6.879627149210691 0 0 0
15 1 2.3304548581553703 6.270864688704019 5.976151779432626 0 0 0
16 2 9.284624821453276 12.502702771597162 2.1455381773494393 0 0 1
17 1 8.988779137075126 1.1843358804618944 1.9413933652499884 0 1 1
18 1 8.543831460935369 11.977880500068952 1.9625118356181956 0 0 1
19 2 2.434739925434478 11.51841875342319 12.620430508996904 1 0 -1
20 1 1.8649801929007566 12.082151751893134 0.9841611810150557 1 0 0
21 1 2.8095872408525326 10.827677969980751 1.0892901147113183 1 0 0
22 2 12.29397189769342 8.58666405888844 7.898181380751563 0 0 0
23 1 11.413014030915047 8.85123431029147 8.225331598827514 0 0 0
24 1 12.12345789057103 8.672671426940964 6.9381662405568205 0 0 0
25 2 10.197211767977533 10.038301202906935 9.14681656556318 0 0 0
26 1 9.807392777877126 9.929111759989897 9.969708408615288 0 0 0
27 1 10.30227321374775 11.004787530806556 9.086286967721954 0 0 0
28 2 7.5011889057629375 12.366691668560378 8.638090944576406 0 -1 0
29 1 6.770093850421711 12.760371648405824 8.121220518491556 0 -1 0
30 1 7.178940791349873 12.109680714355484 9.503339597689342 0 -1 0
31 2 10.670128510097479 10.408424760509316 3.441462078238262 0 -1 0
32 1 11.553085445725564 10.332103788023725 3.116098229176995 0 -1 0
33 1 10.47035610212041 11.340529299734913 3.182802879199783 0 -1 0
34 2 9.124561467789352 5.054538972809788 12.642550076767861 -1 0 0
35 1 10.021734813016922 5.344917107606907 12.410207630620741 -1 0 0
36 1 8.654958201438555 5.815429503005901 13.102153152506958 -1 0 0
37 2 5.5137875881518825 5.302680907489176 12.24986774821678 0 0 -1
38 1 5.6403019370276075 4.58613716512498 12.919847728983592 0 0 -1
39 1 5.64161755588468 6.157627458091894 12.784210890609643 0 0 -1
40 2 7.802708429458182 9.293324508857188 8.213471455051442 0 0 0
41 1 8.638573055340737 9.765557953020183 8.480087049551459 0 0 0
42 1 8.1377847799611 8.705710516409496 7.4990531699596135 0 0 0
43 2 13.101066839366108 11.901961404459048 3.7365347946832395 0 -1 0
44 1 1.0903468667887914 12.75288766634562 3.255124049111457 1 -1 0
45 1 1.491873102311366 11.198219852563561 3.4191890880740226 1 -1 0
46 2 6.942756186051676 5.615103082758474 4.236416127391369 0 0 0
47 1 5.955564279910579 5.597442654766799 4.25005502076123 0 0 0
48 1 7.1902314278219635 4.784405465819491 4.629035866110186 0 0 0
49 2 7.569091240616053 5.115410062768784 7.977041666370842 0 0 0
50 1 7.804705183671455 5.833978684914735 7.331491822714447 0 0 0
51 1 7.609777688390281 4.285741942822623 7.351244056183202 0 0 0
52 2 10.589817102636049 8.198444330782468 5.288809478390867 0 0 0
53 1 10.270040943361787 8.95984088741277 4.832458879578891 0 0 0
54 1 10.80886342045276 7.571553393000221 4.640948495141969 0 0 0
55 2 8.33530938143595 7.26543845286625 6.341229224420291 0 0 0
56 1 7.759520469616285 6.867901675427991 5.699865790465562 0 0 0
57 1 9.170291848015594 7.492537783797212 5.857074669072975 0 0 0
58 2 11.495207578916629 5.030851140453308 7.810881119836706 0 0 0
59 1 11.925282165348607 5.362164185527222 6.98604279792707 0 0 0
60 1 11.12870185558762 5.75235720650046 8.406039684928729 0 0 0
61 2 12.694791686639936 3.250265911958472 12.249982302117742 -1 0 0
62 1 13.013915766552014 3.1800359154692637 11.393120388605668 -1 0 0
63 1 12.305718515480041 2.338270659323741 12.497254050061319 -1 0 0
64 2 4.057071663561731 12.599862037824815 4.863320617793393 0 0 0
65 1 3.7111737468631536 11.698478154403094 4.7687220378918 0 0 0
66 1 4.942909547793524 12.69246720979506 4.501781100310146 0 0 0
67 2 1.0924695467688161 2.9780234804528005 9.534730129754658 0 0 0
68 1 1.2605970789716936 2.3238046295824586 8.821830742057301 0 0 0
69 1 12.7856317630712 3.645221140297162 9.05452757997921 -1 0 0
70 2 4.063100083082688 2.7517196613748083 3.018089384684213 0 0 1
71 1 4.101307098595567 3.694551467484657 3.315439484133655 0 0 1
72 1 4.349489899411913 2.1953059249012967 3.7324434392697206 0 0 1
73 2 2.3577412288499087 10.466018197534115 7.468616186261706 0 0 -1
74 1 1.473195030597391 10.151480136490111 7.63266008775912 0 0 -1
75 1 2.7629069446154304 9.95447619960876 6.743203355942533 0 0 -1
76 2 3.0500950348020144 6.7541402010320795 2.046653615114145 0 0 0
77 1 2.919471794005928 7.589172331539462 2.6245459146442323 0 0 0
78 1 2.153749511394203 6.535995326137929 1.6895508999410425 0 0 0
79 2 4.267370663674376 5.174752078973821 3.9113657256617933 0 0 0
80 1 3.66517423718203 5.707408999656307 3.356849263945327 0 0 0
81 1 3.953246430373329 5.382616936121328 4.810856856228331 0 0 0
82 2 11.147003696260118 7.507956561585346 11.66144155546261 0 0 -1
83 1 10.648421029439374 8.106140706698586 12.267300795758349 0 0 -1
84 1 11.867381136192192 8.069355246312126 11.391998774309013 0 0 -1
85 2 10.516779382360326 3.231610182002574 4.473491753736009 0 1 0
86 1 9.697262947492248 3.0102591003493666 4.9805100029653735 0 1 0
87 1 10.973703852865537 2.3887291466401996 4.357609964322053 0 1 0
88 2 5.104718581512386 12.22126071730188 7.2478269426407005 0 0 0
89 1 4.746346769404063 12.427243358519865 6.406911516416277 0 0 0
90 1 4.580269792510746 11.546742963160419 7.738764934746284 0 0 0
91 2 11.467664921555475 12.839245964706821 5.624321585948842 0 -1 0
92 1 12.084700315824023 12.321278254336216 5.074038336123842 0 -1 0
93 1 10.794658079575095 12.215831997527875 5.874588189987612 0 -1 0
94 2 9.562603793008705 8.563952349898612 1.5660004614911025 -1 0 0
95 1 8.952736252326071 7.856530004219307 1.936389781908873 -1 0 0
96 1 9.640037640753338 9.27843739781873 2.1911537993381303 -1 0 0
97 2 2.8877166391391205 8.277191025212666 10.129111853418857 0 0 0
98 1 2.2539763492299505 8.988274129823669 10.33176321829769 0 0 0
99 1 3.450919092134926 8.677036543741268 9.50565258758605 0 0 0
100 2 6.703441247396246 12.606926874497013 3.8492647039436036 0 0 0
101 1 7.181612385954381 11.792534530886943 4.003545466002811 0 0 0
102 1 7.104388847711556 1.1574306508260015 4.354980793090779 0 1 0
103 2 9.410022454758797 11.395480981461807 6.752937999748052 0 0 0
104 1 8.919052159875216 10.791137284691942 6.147468767734669 0 0 0
105 1 8.665231382310969 11.814667951171502 7.207694414976613 0 0 0
106 2 6.829693961765785 11.391990410386555 1.4849514901266698 0 0 1
107 1 6.456918797575762 12.152738535186984 2.0279646614833884 0 0 1
108 1 6.613962903564926 11.56156903811319 12.760937100749542 0 0 0
109 2 4.332445470517147 8.660955821976588 5.574767836825037 0 0 0
110 1 4.002290032178055 8.837267245443329 4.716479291169706 0 0 0
111 1 4.069943989359436 7.721809259485279 5.758801075226035 0 0 0
112 2 8.245371442845105 2.6377661022711814 10.760494083118383 0 0 0
113 1 9.110528479516045 2.3912392192880865 11.039993884983911 0 0 0
114 1 8.090459815613892 2.145258704997357 9.98003681355794 0 0 0
115 2 1.3472932819694767 5.956675882760286 9.649626444181644 0 0 0
116 1 13.136946137981004 5.783618552497352 8.81231440294298 -1 0 0
117 1 1.6914359741332308 6.864776055180023 9.578580346394196 0 0 0
118 2 12.906937774605819 9.722863402867077 10.938406430902846 0 0 0
119 1 1.1568028244444835 10.436029693338892 11.335154660936867 1 0 0
120 1 12.08793346645951 10.055739400556734 10.452850541166018 0 0 0
121 2 4.606311115399741 3.4046314625702414 7.015716920991185 0 0 0
122 1 3.7831119551603836 3.173707540217107 6.5965314314466115 0 0 0
123 1 5.286310283725551 3.327446127706391 6.365716439897139 0 0 0
124 2 6.969046889808317 10.126389336338333 5.556549934761214 0 0 0
125 1 6.23659896289779 9.565473833477922 5.421705270892576 0 0 0
126 1 6.680415624529293 10.832756052843118 6.180362385784292 0 0 0
127 2 1.8742102037818174 1.6377605986477786 2.182065198268605 1 1 0
128 1 2.680795451450698 2.2095134691810574 2.390041416308704 1 1 0
129 1 1.4130544708846995 2.134872374504111 1.5104480318208318 1 1 0
130 2 9.889247611338114 6.225982935446661 9.424011193583208 -1 -1 0
131 1 10.415857196971977 6.757597801014169 10.067774298799877 -1 -1 0
132 1 9.519865149445408 6.888813337662372 8.871824807231622 -1 -1 0
133 2 4.2750945202954 0.9774790718914337 11.601837394057693 0 0 0
134 1 4.673024573105624 1.4191606370681258 12.413109330080745 0 0 0
135 1 3.565461335903996 12.604372310266555 11.914563764135021 0 -1 0
136 2 4.862417649615326 9.218652162619577 11.759796964550112 0 0 0
137 1 5.1295060268227415 8.873716055217285 12.62554559329243 0 0 0
138 1 4.206633708144705 8.73835498649696 11.293447433554256 0 0 0
139 2 11.346222180182478 12.646121016147154 9.943484560528278 0 -1 0
140 1 12.217823535560472 12.8192354564175 9.55052845761577 0 -1 0
141 1 10.882453449192809 1.163447521337931 9.34086839594813 0 0 0
142 2 12.179091979457699 5.6037653338505224 1.145974196729039 0 0 1
143 1 12.557491476671593 4.740007019935013 12.928186388159565 0 0 0
144 1 12.004267336054893 6.292358635629415 12.607913689409271 0 0 0
145 2 4.927984737865267 3.0687137358578966 9.906114932835063 0 0 0
146 1 4.8304135872389224 2.3904712143136426 10.539660677687985 0 0 0
147 1 5.034917296002259 2.5042683612113765 9.070928555999334 0 0 0
148 2 10.566350964215873 2.2687840169453404 8.01395471529186 0 0 0
149 1 10.550773141335014 3.256467497950143 7.852512114213943 0 0 0
150 1 10.411612117758455 1.7403780621858134 7.218579558040276 0 0 0
151 2 5.08658389101578 5.875596982582429 8.568541409302446 0 0 0
152 1 5.5117172449059035 6.681142383884597 8.898600481053656 0 0 0
153 1 5.83040627226013 5.21293829335618 8.24366822342251 0 0 0
154 2 1.2201929163576828 1.1059079654452626 7.591928574623492 1 1 0
155 1 1.7501813357094407 12.516693886082983 7.336346080025126 1 0 0
156 1 12.5349989465364 0.9916179535008581 7.126450754647833 0 1 0
157 2 2.0675740586360365 2.8265184873516294 5.685958710627544 1 0 0
158 1 1.7783894179063242 2.130798318016977 6.267887394988443 1 0 0
159 1 2.1788672021311966 2.3876488542666676 4.8201743197642335 1 0 0
160 2 9.041489677771207 10.318822868595854 11.563728538918458 0 0 -1
161 1 8.194525972706096 10.662992234163301 11.30976221093954 0 0 -1
162 1 8.977934519392978 9.872503991130987 12.367829662097376 0 0 -1
163 2 8.746769531677025 2.9473069718624223 2.0186035894292274 0 0 0
164 1 9.07447449266285 3.134931229467612 2.9224775677592696 0 0 0
165 1 8.904948550599576 3.7555043568268647 1.3862413842829724 0 0 0
166 2 6.227762120306823 11.495160416333 11.096495051126388 0 0 0
167 1 5.751839571886352 10.60632107244307 11.150689500336764 0 0 0
168 1 5.487269998594248 12.124882280423236 11.291855422375077 0 0 0
169 2 12.946296373857876 5.373403792615066 5.582943018863581 0 0 0
170 1 12.356446152440334 5.525767487202725 4.764380245429123 0 0 0
171 1 1.0271246102377094 4.414695399693299 5.476057289955797 1 0 0
172 2 4.8333134770731725 9.499487293374095 8.432995843746395 0 0 0
173 1 5.722741741391386 9.711822781229152 8.534374936885495 0 0 0
174 1 4.779798353506747 9.015256379079569 7.563521784231426 0 0 0
175 2 5.884637498973304 8.846339828175935 2.062789687506577 0 0 0
176 1 5.128099629598306 9.032691158537746 2.6980473630443904 0 0 0
177 1 6.328101609214793 9.713153936866458 1.963705141068037 0 0 0
178 2 11.2672314814857 6.089228561130249 3.6244768544078094 0 0 1
179 1 10.648353878858124 5.358627408063682 3.6719375289272795 0 0 1
180 1 11.745382674157058 5.8069590276669905 2.803504126683408 0 0 1
181 3 7.435419183452475 4.824278707801323 10.4393256779482 0 0 0
182 3 3.3187555777061544 4.753255621437241 9.917977618156804 0 0 0
183 4 3.198834857477706 9.803428328584953 3.107113942156687 0 0 0
184 4 7.448183248331755 2.794093778290933 5.3609417723052 0 1 0

Velocities

1 -4.033628805893143 3.2135163816377608 -0.9346862502627287
2 4.111760929402056 11.181297776678656 5.283551023236433
3 15.184597972796404 20.352264440521495 -0.3120778036755519
4 -2.5223762137620827 2.8018235900493957 -6.697679602257992
5 1.1021472886037098 -32.207321642936954 -5.284413093081388
6 -32.57633689106904 5.44333258468283 -17.834204121784936
7 1.1718538201681392 3.1721720929260804 3.486730057726402
8 -3.9122155087585897 13.604328815979668 -9.470157420867254
9 -6.662152125829855 -7.613031519954351 -6.61330679980933
10 -4.404065495114229 1.0064246058912496 -5.850532841772014
11 -8.166055463567554 -23.260060917509612 0.0896081313781664
12 3.7077457670737144 -12.714390610344664 -7.77166599983099
13 2.517906023292155 -4.862593697678038 6.250740788498042
14 7.185575853406849 -14.173128119936038 2.8507748732753986
15 -11.68860767229408 -30.97619713320653 -5.7725772033770735
16 3.4977763280564353 5.809655286482664 3.3891577978009453
17 -15.518239711532251 -2.468191983903713 -6.352493748182375
18 5.55158289954121 -0.8368753005052837 40.461126581938096
19 1.4076146678973684 9.354257265049007 3.96638600984744
20 26.489817131776597 -9.944547303729594 4.201620497707771
21 1.988733094458604 -6.984537452605438 5.51060035191129
22 -2.787361827042462 2.4437525724522344 -4.055418443348651
23 11.651662361802865 -35.78528209013972 -14.898410475380583
24 -22.527976783703064 8.191190596272495 2.2822115720047473
25 2.765288685462236 1.1971374632819258 -6.080862567298567
26 -9.544571795123014 4.148013348244661 -0.9179279017791295
27 -1.0029036940663112 -10.032714522601264 -3.2879797524480416
28 -6.835468551759611 1.22654946138719 2.0777051490758587
29 22.02067385972626 6.166753499719223 -19.788344362061913
30 -4.655520359052754 -14.048152974459768 -10.358583566989541
31 -1.9383581165389574 3.999074453056372 -6.141146043930576
32 3.439944569255398 -8.200572322837893 1.008244151687498
33 -2.3622855194822483 -11.822886920691664 -0.5525079385977416
34 -8.406897339747594 -4.279627423166338 -2.3845967165563122
35 -10.82686641889216 -1.5985255147095339 -4.0748292377508
36 4.106006789118503 1.9292297443302504 10.070051771692267
37 -0.8490576519241909 1.9868288162006384 2.628697053163759
38 -8.864641890609768 -20.861970683078592 21.818018028839823
39 5.972384731125767 16.26376244146554 3.091178057371019
40 -6.868585536824331 -3.703700195114449 0.5495874339308545
41 -1.727496376150854 -1.8278079786512835 -1.1515027918654617
42 -9.189350565054239 -4.472614499050892 -7.924829163595262
43 2.848410909311996 1.593828866769889 2.7006617618798017
44 -4.292545647763785 -4.949416184847872 -11.627868663744993
45 3.8420921890781106 -17.408753486550875 10.636224641355584
46 -0.2400986518680866 3.96029626367416 0.9338061058874151
47 -9.706767513212567 -6.825933707470982 -12.092120988125776
48 3.8289326510734942 -6.04399467538539 16.598170350504855
49 2.4079467250582116 -3.2435547060556034 4.519500347385646
50 33.83714795645014 -5.692880563601556 16.72648357325001
51 -20.520804632705484 8.375915261275228 -1.5560428370423507
52 -1.270089799924616 -0.7881751137445434 1.087419629941818
53 3.4169443158364086 0.21486898391929116 16.968702056706498
54 16.068125789971074 10.454771239155377 2.724081459853618
55 2.102878097150392 -8.661981751214862 -3.8508397173362514
56 16.395492134814692 -11.361190571433411 4.636560446358824
57 9.412406560672157 -4.451707956261409 17.642312564038342
58 1.4291344277235294 2.008707411258233 -1.0939150366460006
59 -3.8645416483427457 -14.407064917448206 -0.8281281986881978
60 -34.23603914861989 5.624875379572914 7.419545643606818
61 -0.1365695965677681 -2.988244100077124 -4.491571533250444
62 -1.3356442378732785 0.6829286742471361 11.1341059170638
63 17.293956478516556 -25.287883180674218 -13.662334818490603
64 -0.10988479796243096 2.194801856913645 2.2035913018007247
65 -7.74566620077687 13.799351654960192 -13.73989723563684
66 -22.047329720043177 20.463795239099497 -18.488602051197315
67 -8.779630736007038 -8.67192024869514 2.2801052866391234
68 0.19203642872420648 -5.532492013673144 -11.50619091780678
69 -14.20036946356296 26.210664843043777 -4.15322928130885
70 -0.3432814770023246 -1.7423665343024184 3.2776980660281283
71 43.87551159748045 -16.43458872529308 -0.5407599835178158
72 -1.5275069940531942 -1.06840758012171 8.392373628557863
73 0.5242623267691394 -4.626564413558798 4.8993774726925094
74 -6.009050920790359 33.82569451802812 -2.8482107852086513
75 12.81904988954613 9.69610122639155 27.69306987657493
76 0.8438085797331414 -10.050181218939953 4.468771269776697
77 -5.7669958037103335 11.778052854408367 13.856671293752497
78 7.077768804215999 16.018780577552956 18.606821662689637
79 1.2370017520109053 -0.047572711500547926 -0.8058191331327412
80 6.313155284222931 -12.96480842197364 -14.900586609756518
81 -6.722317822235813 2.1055484439365926 2.3637135240449623
82 9.186893569425267 1.656472868127755 -6.99733956203224
83 10.912828274974215 8.454469907325588 -5.757165552990582
84 -3.8802014045248225 -5.625413260172802 -23.240852438583246
85 -2.3022182896682066 2.6619361299316826 -12.00940583496397
86 0.7485306666745424 -41.324854818810834 16.840682659160624
87 -15.87454006086013 7.027872360909532 -12.509468052253888
88 2.586085748826208 -3.1864168885347315 5.105522319972234
89 -15.507108892671956 4.535960892765053 -2.575184303724944
90 -10.106329482522053 2.117250231532435 -0.10354246184473877
91 -1.58349711000099 -4.689141651491634 -2.8098429049781855
92 -13.636082088763786 -0.6885187007256393 -5.454036342572751
93 -19.005669969462456 -9.761575257288328 8.902363705524959
94 -1.8630825064412408 -3.9474439362131952 0.028507930639036148
95 -7.416811046429 4.133293632977627 -23.460389603480415
96 0.9484781578333684 24.836139501641927 -0.9741993711833544
97 2.717681370225333 0.8632257872849192 -6.76936091689208
98 -29.92776352812851 1.9979506884435805 -15.263958088216674
99 -3.501584121479235 15.67776232558901 6.09452463207909
100 11.462399249211044 0.3953015104900313 0.5563616057912982
101 -1.8316118984111789 -14.306442109503575 19.252915033248964
102 2.7844376649146247 -13.312174685237789 3.489707777633149
103 0.9095481460680729 2.4120813825943364 -7.986635258251488
104 1.8670349914526296 30.27872477943991 15.970853062257854
105 2.2257378709400144 1.205752528681756 16.642951452856682
106 2.6061032710053844 0.6278692924438255 -0.2471894731370419
107 -2.8620177491652976 1.4408367019527761 16.849234847657435
108 -11.092454254933472 28.277842812183316 20.78560874157218
109 3.4095818507877493 -1.6732778987195598 6.722236495976007
110 6.135587531896886 1.2951846954197614 -17.693856522508913
111 -5.603129356153646 10.712653034581214 5.270945194231845
112 2.2606686230909037 4.498968317494248 2.9152891685085787
113 -3.3297455039323074 -15.491707936913615 27.19057735600281
114 -21.85954277722742 7.328308979130111 -26.20834896345431
115 -2.5650568664750617 9.420494598935994 -1.1325465597973934
116 -1.68691376200983 -19.919237914873452 1.3369544235540938
117 -13.110815669682182 7.330921817052305 12.372565762613853
118 2.07962671242834 0.842571941765626 0.4854505374623975
119 -10.729559573827517 7.454317457086823 -8.591759281302165
120 -8.407860536896512 -28.659180642785714 -11.829023095606924
121 -7.464566986496307 11.043476720483353 -8.394260655381864
122 1.264645347631705 5.840907345128125 9.863756205029702
123 2.8666929270679873 5.414924346445994 3.4660745103728847
124 -0.6205922129677014 1.0532991137080063 -4.8404566067077415
125 49.062701553033115 -37.621888385808056 -3.323754310433615
126 18.30785671293931 18.512997628953592 -10.501993715252203
127 4.771168553560604 4.628937847689528 9.75275573527958
128 33.79266173563499 4.938438786071012 5.702769689184263
129 20.556501556294855 7.60954204995921 -5.990863637447097
130 2.018719742553029 -0.4825304646539163 1.0263175096457413
131 -7.826958954142946 2.418371039678205 7.524619245403308
132 -0.4535674941904419 -8.025856873934217 12.460614008964821
133 5.7411819911395945 0.1503582292774094 -2.074863948793396
134 -24.88012062760225 -10.688969677583717 39.225606530817984
135 -2.975927433583863 27.139490340466864 -17.6121538215524
136 -0.7506909817243861 -3.461418234605202 1.9456334035738172
137 18.245652960394903 -15.980567467305193 18.045462003018176
138 13.003170736925645 -16.017998393137262 -19.46171748311568
139 1.1259342880988477 -2.876312065346903 -0.2845244224305018
140 -20.647480624164697 15.55452467583883 18.496797922340924
141 1.5151493123424038 -1.7150039793220766 2.411188805212464
142 0.38388481232376404 0.7481811812877665 -8.358061253982129
143 22.720974497794575 -5.370799591977395 -5.705967333772637
144 16.455828717011556 12.55485923702896 10.056147514361585
145 6.088610199518445 3.1128896633896743 0.8223770722682491
146 -3.5391212067097815 -22.506393851668452 -26.368767160252514
147 -36.566720944683865 -7.364268290162368 -30.829927979085166
148 -0.9681840776216208 3.3353467898489844 1.3968916352957377
149 -16.5330971952553 -5.83026697254767 -27.904340708359147
150 -12.003364902198898 -22.883904574444564 9.217645638842665
151 2.5521203337248624 -1.2521786686563927 3.295239469326908
152 7.553972697109757 -3.9503342187156814 7.515182961656734
153 4.697610871551983 -33.455159236965144 -15.386478701769278
154 -4.245247418333276 3.714494001012871 2.729324003525656
155 15.26714552017097 -21.851426681621827 -11.462171095080926
156 8.043895037646102 -18.289237402427705 10.067159937140778
157 -1.5190791644926964 -0.7666654427276682 -1.4639673341338821
158 3.691271051025045 -11.504571804815301 3.0194289009569215
159 8.45812833859272 22.30269784850285 12.831514156336862
160 -1.1531550572623595 3.59873979312339 -4.137177002215037
161 6.223474082702183 9.885534562784606 -38.514996082185306
162 -5.498809830625465 -1.063882088826043 -33.90625464913093
163 -0.8854803860260438 1.4198990050228477 9.715904856919558
164 3.2284287608123794 5.2369008092789135 -10.046848389263658
165 31.95041349049798 -12.263528720543324 6.103818336491887
166 4.7092520735717835 -1.2239577531113182 3.85983643851404
167 11.507607043775325 -14.56838511987063 10.469649452289024
168 28.63442921929859 9.32425049914671 9.205188520472717
169 -0.9522050702118163 5.397471352190387 6.4906116784817725
170 -3.2112211724702995 -9.334277660683474 -26.61563298838407
171 8.240918795164044 8.712552369419381 -8.083982525065062
172 -4.279923331462764 -1.78769712052958 -2.8114953553491575
173 19.034998079039745 -9.729460246839924 -0.2967218872775275
174 6.952840242152314 -8.161497187691012 14.285902524721859
175 6.485391043239856 2.981192387901237 2.4490574697829106
176 1.4039511119480146 -15.156141043878694 -29.516818586685318
177 -0.18596694296227398 -2.147321824116161 10.71529311151151
178 -7.56856730354612 0.7457035148114974 1.5656573079719664
179 11.33974979331451 7.025168785666425 -6.717194285051336
180 5.075406679226226 -14.217997060968536 12.717367052119128
181 2.8398385664096213 -2.2499204714723353 2.1468478525947625
182 -2.8271825892842224 -5.268628609160024 -2.671429576714528
183 -6.414314546271417 -3.115970939250571 -1.0255406425888958
184 1.8678029003564685 1.6182375348409366 3.73401853928045
