LAMMPS data file: ice X at ~175 GPa, 384 atoms

384 atoms
2 atom types

2.077773 12.693427 xlo xhi
2.077773 12.693427 ylo yhi
2.077773 12.693427 zlo zhi

Masses

1 1.0079
2 15.999

Atoms # atomic

1 2 2.077773 2.077773 2.077773 0 0 0
2 2 3.404730 3.404730 3.404730 0 0 0
3 1 2.741252 2.741252 2.741252 0 0 0
4 1 2.741252 4.068208 4.068208 0 0 0
5 1 4.068208 2.741252 4.068208 0 0 0
6 1 4.068208 4.068208 2.741252 0 0 0
7 2 2.077773 2.077773 4.731687 0 0 0
8 2 3.404730 3.404730 6.058643 0 0 0
9 1 2.741252 2.741252 5.395165 0 0 0
10 1 2.741252 4.068208 6.722122 0 0 0
11 1 4.068208 2.741252 6.722122 0 0 0
12 1 4.068208 4.068208 5.395165 0 0 0
13 2 2.077773 2.077773 7.385600 0 0 0
14 2 3.404730 3.404730 8.712557 0 0 0
15 1 2.741252 2.741252 8.049078 0 0 0
16 1 2.741252 4.068208 9.376035 0 0 0
17 1 4.068208 2.741252 9.376035 0 0 0
18 1 4.068208 4.068208 8.049078 0 0 0
19 2 2.077773 2.077773 10.039513 0 0 0
20 2 3.404730 3.404730 11.366470 0 0 0
21 1 2.741252 2.741252 10.702992 0 0 0
22 1 2.741252 4.068208 12.029948 0 0 0
23 1 4.068208 2.741252 12.029948 0 0 0
24 1 4.068208 4.068208 10.702992 0 0 0
25 2 2.077773 4.731687 2.077773 0 0 0
26 2 3.404730 6.058643 3.404730 0 0 0
27 1 2.741252 5.395165 2.741252 0 0 0
28 1 2.741252 6.722122 4.068208 0 0 0
29 1 4.068208 5.395165 4.068208 0 0 0
30 1 4.068208 6.722122 2.741252 0 0 0
31 2 2.077773 4.731687 4.731687 0 0 0
32 2 3.404730 6.058643 6.058643 0 0 0
33 1 2.741252 5.395165 5.395165 0 0 0
34 1 2.741252 6.722122 6.722122 0 0 0
35 1 4.068208 5.395165 6.722122 0 0 0
36 1 4.068208 6.722122 5.395165 0 0 0
37 2 2.077773 4.731687 7.385600 0 0 0
38 2 3.404730 6.058643 8.712557 0 0 0
39 1 2.741252 5.395165 8.049078 0 0 0
40 1 2.741252 6.722122 9.376035 0 0 0
41 1 4.068208 5.395165 9.376035 0 0 0
42 1 4.068208 6.722122 8.049078 0 0 0
43 2 2.077773 4.731687 10.039513 0 0 0
44 2 3.404730 6.058643 11.366470 0 0 0
45 1 2.741252 5.395165 10.702992 0 0 0
46 1 2.741252 6.722122 12.029948 0 0 0
47 1 4.068208 5.395165 12.029948 0 0 0
48 1 4.068208 6.722122 10.702992 0 0 0
49 2 2.077773 7.385600 2.077773 0 0 0
50 2 3.404730 8.712557 3.404730 0 0 0
51 1 2.741252 8.049078 2.741252 0 0 0
52 1 2.741252 9.376035 4.068208 0 0 0
53 1 4.068208 8.049078 4.068208 0 0 0
54 1 4.068208 9.376035 2.741252 0 0 0
55 2 2.077773 7.385600 4.731687 0 0 0
56 2 3.404730 8.712557 6.058643 0 0 0
57 1 2.741252 8.049078 5.395165 0 0 0
58 1 2.741252 9.376035 6.722122 0 0 0
59 1 4.068208 8.049078 6.722122 0 0 0
60 1 4.068208 9.376035 5.395165 0 0 0
61 2 2.077773 7.385600 7.385600 0 0 0
62 2 3.404730 8.712557 8.712557 0 0 0
63 1 2.741252 8.049078 8.049078 0 0 0
64 1 2.741252 9.376035 9.376035 0 0 0
65 1 4.068208 8.049078 9.376035 0 0 0
66 1 4.068208 9.376035 8.049078 0 0 0
67 2 2.077773 7.385600 10.039513 0 0 0
68 2 3.404730 8.712557 11.366470 0 0 0
69 1 2.741252 8.049078 10.702992 0 0 0
70 1 2.741252 9.376035 12.029948 0 0 0
71 1 4.068208 8.049078 12.029948 0 0 0
72 1 4.068208 9.376035 10.702992 0 0 0
73 2 2.077773 10.039513 2.077773 0 0 0
74 2 3.404730 11.366470 3.404730 0 0 0
75 1 2.741252 10.702992 2.741252 0 0 0
76 1 2.741252 12.029948 4.068208 0 0 0
77 1 4.068208 10.702992 4.068208 0 0 0
78 1 4.068208 12.029948 2.741252 0 0 0
79 2 2.077773 10.039513 4.731687 0 0 0
80 2 3.404730 11.366470 6.058643 0 0 0
81 1 2.741252 10.702992 5.395165 0 0 0
82 1 2.741252 12.029948 6.722122 0 0 0
83 1 4.068208 10.702992 6.722122 0 0 0
84 1 4.068208 12.029948 5.395165 0 0 0
85 2 2.077773 10.039513 7.385600 0 0 0
86 2 3.404730 11.366470 8.712557 0 0 0
87 1 2.741252 10.702992 8.049078 0 0 0
88 1 2.741252 12.029948 9.376035 0 0 0
89 1 4.068208 10.702992 9.376035 0 0 0
90 1 4.068208 12.029948 8.049078 0 0 0
91 2 2.077773 10.039513 10.039513 0 0 0
92 2 3.404730 11.366470 11.366470 0 0 0
93 1 2.741252 10.702992 10.702992 0 0 0
94 1 2.741252 12.029948 12.029948 0 0 0
95 1 4.068208 10.702992 12.029948 0 0 0
96 1 4.068208 12.029948 10.702992 0 0 0
97 2 4.731687 2.077773 2.077773 0 0 0
98 2 6.058643 3.404730 3.404730 0 0 0
99 1 5.395165 2.741252 2.741252 0 0 0
100 1 5.395165 4.068208 4.068208 0 0 0
101 1 6.722122 2.741252 4.068208 0 0 0
102 1 6.722122 4.068208 2.741252 0 0 0
103 2 4.731687 2.077773 4.731687 0 0 0
104 2 6.058643 3.404730 6.058643 0 0 0
105 1 5.395165 2.741252 5.395165 0 0 0
106 1 5.395165 4.068208 6.722122 0 0 0
107 1 6.722122 2.741252 6.722122 0 0 0
108 1 6.722122 4.068208 5.395165 0 0 0
109 2 4.731687 2.077773 7.385600 0 0 0
110 2 6.058643 3.404730 8.712557 0 0 0
111 1 5.395165 2.741252 8.049078 0 0 0
112 1 5.395165 4.068208 9.376035 0 0 0
113 1 6.722122 2.741252 9.376035 0 0 0
114 1 6.722122 4.068208 8.049078 0 0 0
115 2 4.731687 2.077773 10.039513 0 0 0
116 2 6.058643 3.404730 11.366470 0 0 0
117 1 5.395165 2.741252 10.702992 0 0 0
118 1 5.395165 4.068208 12.029948 0 0 0
119 1 6.722122 2.741252 12.029948 0 0 0
120 1 6.722122 4.068208 10.702992 0 0 0
121 2 4.731687 4.731687 2.077773 0 0 0
122 2 6.058643 6.058643 3.404730 0 0 0
123 1 5.395165 5.395165 2.741252 0 0 0
124 1 5.395165 6.722122 4.068208 0 0 0
125 1 6.722122 5.395165 4.068208 0 0 0
126 1 6.722122 6.722122 2.741252 0 0 0
127 2 4.731687 4.731687 4.731687 0 0 0
128 2 6.058643 6.058643 6.058643 0 0 0
129 1 5.395165 5.395165 5.395165 0 0 0
130 1 5.395165 6.722122 6.722122 0 0 0
131 1 6.722122 5.395165 6.722122 0 0 0
132 1 6.722122 6.722122 5.395165 0 0 0
133 2 4.731687 4.731687 7.385600 0 0 0
134 2 6.058643 6.058643 8.712557 0 0 0
135 1 5.395165 5.395165 8.049078 0 0 0
136 1 5.395165 6.722122 9.376035 0 0 0
137 1 6.722122 5.395165 9.376035 0 0 0
138 1 6.722122 6.722122 8.049078 0 0 0
139 2 4.731687 4.731687 10.039513 0 0 0
140 2 6.058643 6.058643 11.366470 0 0 0
141 1 5.395165 5.395165 10.702992 0 0 0
142 1 5.395165 6.722122 12.029948 0 0 0
143 1 6.722122 5.395165 12.029948 0 0 0
144 1 6.722122 6.722122 10.702992 0 0 0
145 2 4.731687 7.385600 2.077773 0 0 0
146 2 6.058643 8.712557 3.404730 0 0 0
147 1 5.395165 8.049078 2.741252 0 0 0
148 1 5.395165 9.376035 4.068208 0 0 0
149 1 6.722122 8.049078 4.068208 0 0 0
150 1 6.722122 9.376035 2.741252 0 0 0
151 2 4.731687 7.385600 4.731687 0 0 0
152 2 6.058643 8.712557 6.058643 0 0 0
153 1 5.395165 8.049078 5.395165 0 0 0
154 1 5.395165 9.376035 6.722122 0 0 0
155 1 6.722122 8.049078 6.722122 0 0 0
156 1 6.722122 9.376035 5.395165 0 0 0
157 2 4.731687 7.385600 7.385600 0 0 0
158 2 6.058643 8.712557 8.712557 0 0 0
159 1 5.395165 8.049078 8.049078 0 0 0
160 1 5.395165 9.376035 9.376035 0 0 0
161 1 6.722122 8.049078 9.376035 0 0 0
162 1 6.722122 9.376035 8.049078 0 0 0
163 2 4.731687 7.385600 10.039513 0 0 0
164 2 6.058643 8.712557 11.366470 0 0 0
165 1 5.395165 8.049078 10.702992 0 0 0
166 1 5.395165 9.376035 12.029948 0 0 0
167 1 6.722122 8.049078 12.029948 0 0 0
168 1 6.722122 9.376035 10.702992 0 0 0
169 2 4.731687 10.039513 2.077773 0 0 0
170 2 6.058643 11.366470 3.404730 0 0 0
171 1 5.395165 10.702992 2.741252 0 0 0
172 1 5.395165 12.029948 4.068208 0 0 0
173 1 6.722122 10.702992 4.068208 0 0 0
174 1 6.722122 12.029948 2.741252 0 0 0
175 2 4.731687 10.039513 4.731687 0 0 0
176 2 6.058643 11.366470 6.058643 0 0 0
177 1 5.395165 10.702992 5.395165 0 0 0
178 1 5.395165 12.029948 6.722122 0 0 0
179 1 6.722122 10.702992 6.722122 0 0 0
180 1 6.722122 12.029948 5.395165 0 0 0
181 2 4.731687 10.039513 7.385600 0 0 0
182 2 6.058643 11.366470 8.712557 0 0 0
183 1 5.395165 10.702992 8.049078 0 0 0
184 1 5.395165 12.029948 9.376035 0 0 0
185 1 6.722122 10.702992 9.376035 0 0 0
186 1 6.722122 12.029948 8.049078 0 0 0
187 2 4.731687 10.039513 10.039513 0 0 0
188 2 6.058643 11.366470 11.366470 0 0 0
189 1 5.395165 10.702992 10.702992 0 0 0
190 1 5.395165 12.029948 12.029948 0 0 0
191 1 6.722122 10.702992 12.029948 0 0 0
192 1 6.722122 12.029948 10.702992 0 0 0
193 2 7.385600 2.077773 2.077773 0 0 0
194 2 8.712557 3.404730 3.404730 0 0 0
195 1 8.049078 2.741252 2.741252 0 0 0
196 1 8.049078 4.068208 4.068208 0 0 0
197 1 9.376035 2.741252 4.068208 0 0 0
198 1 9.376035 4.068208 2.741252 0 0 0
199 2 7.385600 2.077773 4.731687 0 0 0
200 2 8.712557 3.404730 6.058643 0 0 0
201 1 8.049078 2.741252 5.395165 0 0 0
202 1 8.049078 4.068208 6.722122 0 0 0
203 1 9.376035 2.741252 6.722122 0 0 0
204 1 9.376035 4.068208 5.395165 0 0 0
205 2 7.385600 2.077773 7.385600 0 0 0
206 2 8.712557 3.404730 8.712557 0 0 0
207 1 8.049078 2.741252 8.049078 0 0 0
208 1 8.049078 4.068208 9.376035 0 0 0
209 1 9.376035 2.741252 9.376035 0 0 0
210 1 9.376035 4.068208 8.049078 0 0 0
211 2 7.385600 2.077773 10.039513 0 0 0
212 2 8.712557 3.404730 11.366470 0 0 0
213 1 8.049078 2.741252 10.702992 0 0 0
214 1 8.049078 4.068208 12.029948 0 0 0
215 1 9.376035 2.741252 12.029948 0 0 0
216 1 9.376035 4.068208 10.702992 0 0 0
217 2 7.385600 4.731687 2.077773 0 0 0
218 2 8.712557 6.058643 3.404730 0 0 0
219 1 8.049078 5.395165 2.741252 0 0 0
220 1 8.049078 6.722122 4.068208 0 0 0
221 1 9.376035 5.395165 4.068208 0 0 0
222 1 9.376035 6.722122 2.741252 0 0 0
223 2 7.385600 4.731687 4.731687 0 0 0
224 2 8.712557 6.058643 6.058643 0 0 0
225 1 8.049078 5.395165 5.395165 0 0 0
226 1 8.049078 6.722122 6.722122 0 0 0
227 1 9.376035 5.395165 6.722122 0 0 0
228 1 9.376035 6.722122 5.395165 0 0 0
229 2 7.385600 4.731687 7.385600 0 0 0
230 2 8.712557 6.058643 8.712557 0 0 0
231 1 8.049078 5.395165 8.049078 0 0 0
232 1 8.049078 6.722122 9.376035 0 0 0
233 1 9.376035 5.395165 9.376035 0 0 0
234 1 9.376035 6.722122 8.049078 0 0 0
235 2 7.385600 4.731687 10.039513 0 0 0
236 2 8.712557 6.058643 11.366470 0 0 0
237 1 8.049078 5.395165 10.702992 0 0 0
238 1 8.049078 6.722122 12.029948 0 0 0
239 1 9.376035 5.395165 12.029948 0 0 0
240 1 9.376035 6.722122 10.702992 0 0 0
241 2 7.385600 7.385600 2.077773 0 0 0
242 2 8.712557 8.712557 3.404730 0 0 0
243 1 8.049078 8.049078 2.741252 0 0 0
244 1 8.049078 9.376035 4.068208 0 0 0
245 1 9.376035 8.049078 4.068208 0 0 0
246 1 9.376035 9.376035 2.741252 0 0 0
247 2 7.385600 7.385600 4.731687 0 0 0
248 2 8.712557 8.712557 6.058643 0 0 0
249 1 8.049078 8.049078 5.395165 0 0 0
250 1 8.049078 9.376035 6.722122 0 0 0
251 1 9.376035 8.049078 6.722122 0 0 0
252 1 9.376035 9.376035 5.395165 0 0 0
253 2 7.385600 7.385600 7.385600 0 0 0
254 2 8.712557 8.712557 8.712557 0 0 0
255 1 8.049078 8.049078 8.049078 0 0 0
256 1 8.049078 9.376035 9.376035 0 0 0
257 1 9.376035 8.049078 9.376035 0 0 0
258 1 9.376035 9.376035 8.049078 0 0 0
259 2 7.385600 7.385600 10.039513 0 0 0
260 2 8.712557 8.712557 11.366470 0 0 0
261 1 8.049078 8.049078 10.702992 0 0 0
262 1 8.049078 9.376035 12.029948 0 0 0
263 1 9.376035 8.049078 12.029948 0 0 0
264 1 9.376035 9.376035 10.702992 0 0 0
265 2 7.385600 10.039513 2.077773 0 0 0
266 2 8.712557 11.366470 3.404730 0 0 0
267 1 8.049078 10.702992 2.741252 0 0 0
268 1 8.049078 12.029948 4.068208 0 0 0
269 1 9.376035 10.702992 4.068208 0 0 0
270 1 9.376035 12.029948 2.741252 0 0 0
271 2 7.385600 10.039513 4.731687 0 0 0
272 2 8.712557 11.366470 6.058643 0 0 0
273 1 8.049078 10.702992 5.395165 0 0 0
274 1 8.049078 12.029948 6.722122 0 0 0
275 1 9.376035 10.702992 6.722122 0 0 0
276 1 9.376035 12.029948 5.395165 0 0 0
277 2 7.385600 10.039513 7.385600 0 0 0
278 2 8.712557 11.366470 8.712557 0 0 0
279 1 8.049078 10.702992 8.049078 0 0 0
280 1 8.049078 12.029948 9.376035 0 0 0
281 1 9.376035 10.702992 9.376035 0 0 0
282 1 9.376035 12.029948 8.049078 0 0 0
283 2 7.385600 10.039513 10.039513 0 0 0
284 2 8.712557 11.366470 11.366470 0 0 0
285 1 8.049078 10.702992 10.702992 0 0 0
286 1 8.049078 12.029948 12.029948 0 0 0
287 1 9.376035 10.702992 12.029948 0 0 0
288 1 9.376035 12.029948 10.702992 0 0 0
289 2 10.039513 2.077773 2.077773 0 0 0
290 2 11.366470 3.404730 3.404730 0 0 0
291 1 10.702992 2.741252 2.741252 0 0 0
292 1 10.702992 4.068208 4.068208 0 0 0
293 1 12.029948 2.741252 4.068208 0 0 0
294 1 12.029948 4.068208 2.741252 0 0 0
295 2 10.039513 2.077773 4.731687 0 0 0
296 2 11.366470 3.404730 6.058643 0 0 0
297 1 10.702992 2.741252 5.395165 0 0 0
298 1 10.702992 4.068208 6.722122 0 0 0
299 1 12.029948 2.741252 6.722122 0 0 0
300 1 12.029948 4.068208 5.395165 0 0 0
301 2 10.039513 2.077773 7.385600 0 0 0
302 2 11.366470 3.404730 8.712557 0 0 0
303 1 10.702992 2.741252 8.049078 0 0 0
304 1 10.702992 4.068208 9.376035 0 0 0
305 1 12.029948 2.741252 9.376035 0 0 0
306 1 12.029948 4.068208 8.049078 0 0 0
307 2 10.039513 2.077773 10.039513 0 0 0
308 2 11.366470 3.404730 11.366470 0 0 0
309 1 10.702992 2.741252 10.702992 0 0 0
310 1 10.702992 4.068208 12.029948 0 0 0
311 1 12.029948 2.741252 12.029948 0 0 0
312 1 12.029948 4.068208 10.702992 0 0 0
313 2 10.039513 4.731687 2.077773 0 0 0
314 2 11.366470 6.058643 3.404730 0 0 0
315 1 10.702992 5.395165 2.741252 0 0 0
316 1 10.702992 6.722122 4.068208 0 0 0
317 1 12.029948 5.395165 4.068208 0 0 0
318 1 12.029948 6.722122 2.741252 0 0 0
319 2 10.039513 4.731687 4.731687 0 0 0
320 2 11.366470 6.058643 6.058643 0 0 0
321 1 10.702992 5.395165 5.395165 0 0 0
322 1 10.702992 6.722122 6.722122 0 0 0
323 1 12.029948 5.395165 6.722122 0 0 0
324 1 12.029948 6.722122 5.395165 0 0 0
325 2 10.039513 4.731687 7.385600 0 0 0
326 2 11.366470 6.058643 8.712557 0 0 0
327 1 10.702992 5.395165 8.049078 0 0 0
328 1 10.702992 6.722122 9.376035 0 0 0
329 1 12.029948 5.395165 9.376035 0 0 0
330 1 12.029948 6.722122 8.049078 0 0 0
331 2 10.039513 4.731687 10.039513 0 0 0
332 2 11.366470 6.058643 11.366470 0 0 0
333 1 10.702992 5.395165 10.702992 0 0 0
334 1 10.702992 6.722122 12.029948 0 0 0
335 1 12.029948 5.395165 12.029948 0 0 0
336 1 12.029948 6.722122 10.702992 0 0 0
337 2 10.039513 7.385600 2.077773 0 0 0
338 2 11.366470 8.712557 3.404730 0 0 0
339 1 10.702992 8.049078 2.741252 0 0 0
340 1 10.702992 9.376035 4.068208 0 0 0
341 1 12.029948 8.049078 4.068208 0 0 0
342 1 12.029948 9.376035 2.741252 0 0 0
343 2 10.039513 7.385600 4.731687 0 0 0
344 2 11.366470 8.712557 6.058643 0 0 0
345 1 10.702992 8.049078 5.395165 0 0 0
346 1 10.702992 9.376035 6.722122 0 0 0
347 1 12.029948 8.049078 6.722122 0 0 0
348 1 12.029948 9.376035 5.395165 0 0 0
349 2 10.039513 7.385600 7.385600 0 0 0
350 2 11.366470 8.712557 8.712557 0 0 0
351 1 10.702992 8.049078 8.049078 0 0 0
352 1 10.702992 9.376035 9.376035 0 0 0
353 1 12.029948 8.049078 9.376035 0 0 0
354 1 12.029948 9.376035 8.049078 0 0 0
355 2 10.039513 7.385600 10.039513 0 0 0
356 2 11.366470 8.712557 11.366470 0 0 0
357 1 10.702992 8.049078 10.702992 0 0 0
358 1 10.702992 9.376035 12.029948 0 0 0
359 1 12.029948 8.049078 12.029948 0 0 0
360 1 12.029948 9.376035 10.702992 0 0 0
361 2 10.039513 10.039513 2.077773 0 0 0
362 2 11.366470 11.366470 3.404730 0 0 0
363 1 10.702992 10.702992 2.741252 0 0 0
364 1 10.702992 12.029948 4.068208 0 0 0
365 1 12.029948 10.702992 4.068208 0 0 0
366 1 12.029948 12.029948 2.741252 0 0 0
367 2 10.039513 10.039513 4.731687 0 0 0
368 2 11.366470 11.366470 6.058643 0 0 0
369 1 10.702992 10.702992 5.395165 0 0 0
370 1 10.702992 12.029948 6.722122 0 0 0
371 1 12.029948 10.702992 6.722122 0 0 0
372 1 12.029948 12.029948 5.395165 0 0 0
373 2 10.039513 10.039513 7.385600 0 0 0
374 2 11.366470 11.366470 8.712557 0 0 0
375 1 10.702992 10.702992 8.049078 0 0 0
376 1 10.702992 12.029948 9.376035 0 0 0
377 1 12.029948 10.702992 9.376035 0 0 0
378 1 12.029948 12.029948 8.049078 0 0 0
379 2 10.039513 10.039513 10.039513 0 0 0
380 2 11.366470 11.366470 11.366470 0 0 0
381 1 10.702992 10.702992 10.702992 0 0 0
382 1 10.702992 12.029948 12.029948 0 0 0
383 1 12.029948 10.702992 12.029948 0 0 0
384 1 12.029948 12.029948 10.702992 0 0 0
