LAMMPS data file via write_data, version 10 Sep 2025, timestep = 20000, units = metal

192 atoms
2 atom types

0.7300548766683521 13.25470812333149 xlo xhi
0.7300548766683521 13.25470812333149 ylo yhi
0.7300548766683521 13.25470812333149 zlo zhi

Masses

1 1.008
2 15.999

Atoms # atomic

1 2 12.626116062647322 11.51905809213425 8.061015385097287 0 0 0
2 1 12.983474449270362 11.38903193902508 7.141128105486876 0 0 0
3 1 11.657585792583031 11.283982258953193 8.044822815825285 0 0 0
4 2 5.3686905176367095 5.2684234195906114 5.68669257810858 0 0 0
5 1 4.9154797919807285 4.6316993081240385 5.096659116791284 0 0 0
6 1 4.793239482689319 6.040443114208511 5.787099282721678 0 0 0
7 2 1.8742795764969937 3.7660673311347246 1.0558933481952624 1 0 0
8 1 2.7488456769379903 4.20346714024738 0.8610989638122503 1 0 0
9 1 1.6614887035818098 4.095732190183025 1.9443419066669645 1 0 0
10 2 4.007566120677731 7.786843090253564 5.833697950690326 0 0 0
11 1 4.02808817097167 7.945178555377493 4.8766864526485865 0 0 0
12 1 4.275806494943868 8.576458522896825 6.3092662474715695 0 0 0
13 2 5.663654379579676 3.351551985538375 7.988298169757862 0 0 0
14 1 6.2707471789693425 2.716631157136968 7.562055078266782 0 0 0
15 1 5.440028897994915 3.9649400695021257 7.2376153186388095 0 0 0
16 2 7.398774660257352 7.966397843460135 11.428063128658524 0 0 0
17 1 7.849688059611945 8.851868800148749 11.583786196843 0 0 0
18 1 8.077927606430109 7.446130348575909 10.986196545047445 0 0 0
19 2 3.5964406831116484 7.869655191876945 3.240963183105077 1 0 0
20 1 2.61068672646701 7.846893646110011 3.0755579298225686 1 0 0
21 1 4.100492885597904 8.424491488451771 2.620787694427081 1 0 0
22 2 6.148839003311987 11.761906355209996 8.629644004561221 0 0 0
23 1 6.737944015789301 11.008557585603336 8.762191414366084 0 0 0
24 1 5.397392990231075 11.539747163709846 9.169813948904121 0 0 0
25 2 7.536364232577817 4.102631754361768 9.91011989306493 0 0 0
26 1 6.8794347689303805 4.09259256250661 9.208972025562536 0 0 0
27 1 7.142931504865442 3.37240143296502 10.471309882631349 0 0 0
28 2 5.107695245714762 1.0671861538138667 2.817276380162602 0 0 0
29 1 4.287960356169689 0.9715435514933833 2.354978076443506 0 0 0
30 1 5.77772991853472 1.5517007200594375 2.29464621326182 0 0 0
31 2 11.388049366830582 1.7116987502362229 2.5678527788698116 0 0 0
32 1 10.583492332706781 1.1994885657758672 2.3005859959906334 0 0 0
33 1 11.676085563443257 2.1252748375055495 1.739162933677987 0 0 0
34 2 11.340466451211048 9.078391526232863 3.604841485528201 0 0 1
35 1 11.588899373168866 8.787394699107475 4.537046383106349 0 0 1
36 1 12.142761205621579 8.853342652345257 3.045324176701677 0 0 1
37 2 6.62125939571389 1.4465147345117162 11.058060387118708 0 0 -1
38 1 7.206820793766694 0.9707926510666932 10.391457902975402 0 0 -1
39 1 5.765160747098591 0.9694603523292574 11.039405728693989 0 0 -1
40 2 9.220349259506868 6.400691325060149 9.891435626410283 0 0 0
41 1 8.582214398044513 5.637623028887964 10.015917029183083 0 0 0
42 1 9.135956326829607 6.712436110056258 8.966960978182565 0 0 0
43 2 2.044370991531908 1.9698409742622198 6.163403103398351 1 0 0
44 1 2.1779975646744067 2.327175826283184 7.083113316104477 1 0 0
45 1 1.4158161224932404 2.3910482313277805 5.530665016324585 1 0 0
46 2 10.812126736228986 12.700369347249243 11.528187714262728 0 0 0
47 1 10.299013774346816 13.128679892131315 10.831866554764373 0 0 0
48 1 11.643835740764047 12.54464477581278 11.129293553479789 0 0 0
49 2 12.42686267728577 8.254887697474812 6.078279314235212 0 0 0
50 1 12.909634808999199 8.747216546280098 6.703309444773812 0 0 0
51 1 13.048190317017633 7.553369800902682 5.898777575839017 0 0 0
52 2 11.740220231590213 3.1618525934744546 12.903709782424594 0 0 -1
53 1 12.60774730705674 3.5201548501464903 13.09035999563521 0 0 -1
54 1 11.679946448610147 2.888744294419728 11.99474312956114 0 0 -1
55 2 9.314928194470715 12.787200665039869 1.307233065213072 0 0 0
56 1 9.879784788796345 12.722450393878358 12.995452388499773 0 0 -1
57 1 9.247011682066038 11.987914016141453 1.7979674616175858 0 0 0
58 2 10.669081743031386 5.235287870558088 2.0191738069676943 0 0 0
59 1 9.761767544655143 5.092460044839627 2.3854443245876684 0 0 0
60 1 11.034879876415125 4.367486621442848 1.9393456249462884 0 0 0
61 2 9.304903693866272 10.205285181024918 10.63427063263878 0 0 0
62 1 9.317143729064075 11.137899806048397 10.729057431322616 0 0 0
63 1 10.203674689097276 9.90058555816743 10.864521101032794 0 0 0
64 2 4.493779547714727 7.797523086198915 11.794831918344236 0 0 -1
65 1 3.9653821540652787 7.463230741836723 11.028344057893227 0 0 -1
66 1 5.460795645175631 7.75994785416869 11.583468704297182 0 0 -1
67 2 4.267246040970723 5.459711073256296 1.1503699519334498 0 0 1
68 1 4.1763289794041984 6.116989074880641 12.958166055210784 0 0 0
69 1 4.218591678268832 5.937532964264919 2.026710617770613 0 0 1
70 2 3.562511946789045 1.0710583050657592 11.539552949508824 0 1 0
71 1 3.4283292289250547 2.0362861822939022 11.40672337169269 0 1 0
72 1 3.1945725141350025 1.0125036510935463 12.45101735703137 0 1 0
73 2 3.973162072924426 10.257216417410502 12.599925500171807 0 0 -1
74 1 4.20836376479153 9.359280617632502 12.256307343113155 0 0 -1
75 1 4.607201661028792 10.246426372733904 0.806705395121267 0 0 0
76 2 7.5549921032211875 7.6893142637092655 1.4718151743013101 0 -1 0
77 1 7.5211302716711455 7.510894689236563 12.952371003653951 0 -1 -1
78 1 8.367190927386435 8.305387579780428 1.581188589456117 0 -1 0
79 2 9.754641693345672 3.296314281439755 5.948641225410656 0 0 0
80 1 9.102022824381086 4.048169314485156 5.633050670099505 0 0 0
81 1 9.290338335227544 2.441873730528763 5.769454088619277 0 0 0
82 2 7.401346817893516 2.009901663385391 1.0352605479701005 0 1 0
83 1 7.147406327258502 1.7352455129831357 12.667132137799543 0 1 -1
84 1 8.11642837245175 1.3519175974473472 1.3492079650922952 0 1 0
85 2 1.5878982944138706 6.282000993316423 5.985239223244741 0 0 0
86 1 2.4354305295371077 6.615054671213925 5.80658306739377 0 0 0
87 1 1.435044117226142 5.769768400982507 5.182847498120252 0 0 0
88 2 12.253765958837615 2.7780827741152514 4.839658228027685 0 0 0
89 1 11.480208111360403 3.2077315923163283 5.374088106808245 0 0 0
90 1 11.872740724638561 2.3376959326057962 4.059956922561527 0 0 0
91 2 8.383740285522162 12.13783678196569 4.380303903295496 -1 0 0
92 1 7.956670914778609 12.595967354576782 5.128472995954148 -1 0 0
93 1 7.687795389524465 11.494280221399691 4.212231868658839 -1 0 0
94 2 2.6553118549768424 3.8180795738086313 11.003096368700927 0 0 0
95 1 1.7942338508537974 4.044684359147147 11.28462667412813 0 0 0
96 1 2.5046363766033064 3.530649696810967 10.120404160475191 0 0 0
97 2 11.071833117664344 11.477224787251492 5.045575680339713 -1 0 0
98 1 10.061341255286685 11.64019998357272 4.792698436315446 -1 0 0
99 1 11.30805558275625 10.643579070408228 4.589435874508435 -1 0 0
100 2 6.065985749766228 10.716261090704528 4.171127146892196 0 0 0
101 1 5.390720854401281 10.612257726114352 4.837944325820586 0 0 0
102 1 5.650321909911256 11.508393116238132 3.677078274598098 0 0 0
103 2 6.892157568819963 1.066291983240918 6.357000645327488 -1 1 0
104 1 6.888339942874716 13.022862409361862 7.135987144754099 -1 0 0
105 1 5.987613354156167 1.066876513055059 6.064215488998147 -1 1 0
106 2 4.794848556920115 10.681647978031897 6.389853744332991 0 -1 0
107 1 3.9975514021009886 11.219543775718694 6.096088197608745 0 -1 0
108 1 5.321186253549787 11.199327077756035 7.005739836453968 0 -1 0
109 2 10.03838725916529 3.275016760598433 8.593986059040045 0 0 0
110 1 9.131912686545423 3.607425127148199 8.755131966212234 0 0 0
111 1 9.91876018880003 3.1908751271625238 7.6527675861564415 0 0 0
112 2 2.319108513173528 9.267267633186618 8.314899802149174 1 0 0
113 1 2.957221294606076 9.827595467890575 8.753721030197566 1 0 0
114 1 1.5132160826128092 9.790500673816492 8.536506278865927 1 0 0
115 2 9.783825567011347 7.29469752493625 7.366533867007123 0 0 0
116 1 10.630172799607708 7.698101724265417 7.140991185015084 0 0 0
117 1 9.450601977202217 6.938333969532522 6.486169376041654 0 0 0
118 2 0.9477287776875876 12.485841535882145 2.9298982343429842 0 0 0
119 1 12.795842450576187 13.145780151113623 2.9112094343981867 -1 0 0
120 1 0.9762372234278116 12.190883511127398 3.89596922388604 0 0 0
121 2 3.035913006892021 3.0003323695975053 8.382407215546262 0 0 0
122 1 2.896932139362642 4.00991325675142 8.261827008847334 0 0 0
123 1 3.942913463974165 2.8151084293084656 8.226662820235827 0 0 0
124 2 2.6872788077212157 7.1396609715865 9.706465598130084 0 0 0
125 1 2.2370187949171245 6.426939646221208 9.25857455932945 0 0 0
126 1 2.569700285798579 7.906010822871202 9.08403015428846 0 0 0
127 2 12.776832337312147 3.4221362405113833 9.807293353429964 -1 1 0
128 1 11.819089981965986 3.3598107301258224 9.605217344686823 -1 1 0
129 1 12.982973393996906 2.496185755437612 9.794441001282575 -1 1 0
130 2 0.8259190936179854 4.678287182377719 3.470161352001338 1 0 1
131 1 12.626972861394808 5.17435678061444 3.0188828883995127 0 0 1
132 1 12.930779628530129 3.8912041491323053 3.969460142625701 0 0 1
133 2 1.0714140397966145 8.144493280934977 2.251607895923398 1 0 1
134 1 1.2274372141487278 8.890149075271685 1.680856725733851 1 0 1
135 1 0.937251508299895 7.454402698321783 1.540263790582559 1 0 1
136 2 0.9938085369577561 7.463681007500919 11.900970640399994 0 0 0
137 1 12.645978799456415 6.946356187706333 11.898738433081009 -1 0 0
138 1 1.5227313793978783 7.193189847646408 11.090449013897466 0 0 0
139 2 1.5848476565664322 5.196224367061822 8.312709394934217 1 0 0
140 1 1.4438839052465782 5.482494004296285 7.426958673246867 1 0 0
141 1 1.0335101132771132 4.504422587973775 8.774348019449077 1 0 0
142 2 9.043618055455942 0.8065310482188348 9.492559570539301 0 0 0
143 1 9.345155003748973 12.620294462415705 8.864382750999095 0 -1 0
144 1 9.26395068550733 1.6600966748185113 9.112248301099523 0 0 0
145 2 0.9702904809998592 12.110051443752024 5.507569856486072 0 0 0
146 1 12.532155124287833 12.344172537298073 5.5831681271888876 -1 0 0
147 1 1.477524744132254 12.880059699285468 5.854299230756064 0 0 0
148 2 8.21610350853743 5.486718127030457 2.9027268721986847 0 0 0
149 1 8.044787067144041 6.235619018461499 2.296519712922753 0 0 0
150 1 7.537941952179261 4.809631948151061 2.5860921086214734 0 0 0
151 2 7.9664786570635275 9.880225790330206 8.481302164385621 0 0 0
152 1 7.6189708327941394 9.025655444157122 8.312494145187397 0 0 0
153 1 8.41294532755408 9.79286830590211 9.334498463312055 0 0 0
154 2 3.9112295724217 11.098379580497987 9.938446319530614 1 0 0
155 1 3.71125423319832 12.010787390313798 9.994078437344351 1 0 0
156 1 3.9474158604282388 10.717416894377788 10.828282990437808 1 0 0
157 2 1.5339799827747234 10.484570851988517 1.0007546520033248 0 0 1
158 1 1.5721028278398228 11.168322439582504 1.687123711439111 0 0 1
159 1 2.3770480354355166 10.502845974074177 13.000381660923397 0 0 0
160 2 5.634215726819184 9.447195164778504 1.9213245049258056 0 0 0
161 1 6.282457892587281 8.721859556733872 1.7872674857267237 0 0 0
162 1 5.7805292851637935 9.80739412762089 2.8214137899334357 0 0 0
163 2 10.013804929117788 11.43508068974922 7.68747296343206 0 0 0
164 1 9.336544458001894 10.727685802001782 7.730273830426865 0 0 0
165 1 10.44399920565348 11.372475311060981 6.831960901978923 0 0 0
166 2 11.168363456479216 6.229765726315256 12.108294294979325 0 0 0
167 1 10.872402873042354 5.831006059822273 12.9649623672572 0 0 0
168 1 10.553165278725674 6.010222956811177 11.420137536438771 0 0 0
169 2 11.965316129074706 9.643844803226646 11.54082825330613 0 0 0
170 1 12.376678146161952 10.103251975110691 12.307059217879626 0 0 0
171 1 12.609438557954778 8.821380195288977 11.574225602000952 0 0 0
172 2 0.7691390179727337 0.8593352167344123 10.057330727967331 0 0 0
173 1 1.5516486812340615 13.24128243576534 10.531761551391881 0 -1 0
174 1 13.177000181543953 12.68823638011032 9.368396619600581 -1 -1 0
175 2 4.300695307193526 0.8323314844090586 5.575561231899089 0 0 0
176 1 4.387826839189268 0.8780320896371074 4.600478802375005 0 0 0
177 1 3.5364684702519513 1.3946398529824937 5.801091635921421 0 0 0
178 2 3.899224472223169 3.695617429611432 3.879128992984734 0 0 0
179 1 4.698189557994619 3.507917960252934 3.292602666657342 0 0 0
180 1 3.4950524568827728 2.8034909290413332 3.9286734591776926 0 0 0
181 2 6.316937878531308 3.925070207026888 2.0991686712939894 0 0 0
182 1 6.905866825049848 3.2121842040035453 1.6242336462391886 0 0 0
183 1 5.697741679260529 4.3683681747160525 1.4476330305635488 0 0 0
184 2 9.598524799291509 9.418354780608531 1.5717039134769695 0 0 0
185 1 10.068068781947249 9.004833045100423 2.3197269036789665 0 0 0
186 1 10.142750580687101 9.281686740866423 0.800700319251261 0 0 0
187 2 8.347926029522553 5.483187357661018 5.5659574615684075 0 0 1
188 1 7.4487371447793445 5.588291740520235 5.914543994021078 0 0 1
189 1 8.205655936555948 5.679870650378358 4.583305525754667 0 0 1
190 2 2.7337720491861752 1.1706186765814535 1.5307827105503233 0 0 0
191 1 2.1113281837118034 13.16677311649845 2.112661160769791 0 -1 0
192 1 2.4096150859938765 2.049196582090907 1.4450743334653178 0 0 0

Velocities

1 -2.0319607714646075 -2.738094318473645 -4.396260507574759
2 1.1107550606379475 12.529664239015833 -19.56154857856746
3 -20.2506601088204 -21.10842945488004 12.770017243145926
4 -0.995930879180728 -0.6288798762747932 -2.9031744520347322
5 -10.078276157190164 12.699530893038137 2.3820353083370485
6 11.7042288911079 -1.2406589359673061 3.529596292945972
7 2.4717980635427104 2.382849437176962 -1.2018563217766338
8 -18.7346360732986 14.620591146951044 4.080423612926151
9 -11.133530868342026 6.9230102167671514 24.221596228297145
10 4.0495975855062305 -0.3607073808322784 -0.43685525564364497
11 22.099430598015335 -7.178409113110447 -22.405125899874836
12 -4.3599225686262555 -16.91151455815761 -13.403532958773225
13 4.094134190132109 -1.835518606255786 3.5335421105369202
14 -15.799817156087519 -9.007304558897774 -9.558074467190917
15 20.26590884836506 6.993386880881125 17.219496206881917
16 1.6729327788287132 2.2294351063403997 3.7724823430458647
17 15.830690356095905 -16.204425807804093 -0.05110482718499282
18 26.021137027771577 -17.772523667793454 -1.8698875210770733
19 5.11860321690016 -1.7995423347749313 0.971389594308886
20 -10.971831196973753 -27.42702838610945 28.77507671227546
21 -0.20495595637224287 6.651092724903302 -7.177636540737501
22 -0.7465189560293 3.0007068218458337 4.836535744643829
23 4.594140646243942 -0.3370158306666255 -18.913599374600444
24 2.8486281259743773 -11.126328062389975 14.589192598847447
25 1.240581421096339 6.62265748671195 -3.304724272563919
26 -0.31700836392706744 -0.646752173339069 -15.165806370221496
27 20.53924943794492 -29.306294723525045 13.966851219052376
28 5.559415776859163 -5.349927110333075 1.0273067465538086
29 -5.731595550382401 -12.768181877949036 -1.2761030428585602
30 -10.2232991145977 18.055467573391436 -17.467519634285143
31 1.0169954779736354 7.0916742679709595 -3.105815733555869
32 -9.747698944710118 -14.810328900776835 13.02783391958518
33 -11.396519786833593 10.187762987801671 1.2489043948291643
34 -3.406045702507703 5.259614589150192 3.0329482325449084
35 20.95057134813875 2.88838030323245 8.976699108974993
36 8.727067568278892 4.2870098959212575 -20.196591931588788
37 -2.534157287048375 -4.4430553188687325 0.7941140200913709
38 12.09632887993662 -18.81331730038264 -31.303428421818815
39 5.84401646961614 13.086854356278117 2.1211844594949403
40 -3.710488672295232 -0.22900571317196672 1.8220825667472642
41 -9.516146083317318 -18.61354699126233 34.06264814626593
42 -20.210444255152396 30.20406755373178 -0.6907918776474696
43 3.488370682393563 -4.793469640295131 3.493723998845096
44 3.3702854000938545 -9.060989422458032 25.811437538767187
45 -23.144392162652572 -13.11006822194071 -1.0091788077964219
46 -1.6456115018167352 -3.346464319220061 -0.9560179433697082
47 -10.81851640222235 20.709401117376572 -16.017032886220886
48 -16.439570693363244 9.343867221086139 22.94373015304897
49 -5.043763624446823 5.930995667874028 -3.2413846653933978
50 -19.448872751448558 19.239558017915435 20.229688255866304
51 -1.809721158019324 23.748660503724974 -24.052168872796194
52 4.370775252691124 -1.3829310817881717 -0.2978706708505726
53 -9.317797109714748 -4.7681048906954375 -28.689113453308803
54 -3.741173753126715 -2.910430827592974 28.598094522958995
55 4.028789663740752 1.2806885574568083 0.9473094066157156
56 0.745742260908115 -27.724385046983727 6.044934306778451
57 -3.226165194497643 -2.937258778833091 -5.148412725324314
58 4.6392291772452685 1.854008152705338 -8.819326648957839
59 -11.996675985582682 5.099754734498215 8.851298271110352
60 9.522885300969428 -15.9586057444698 -17.93482738281716
61 -1.6391966375568707 -4.34676712456792 -4.545018420438454
62 -16.50065165657659 5.640912790914143 -9.426489240565388
63 3.064829947606524 9.844909394428646 17.5345738914357
64 -5.765208639706988 -1.9845386450425682 -1.9804640956576536
65 6.0346702672864545 14.452654686915212 -0.3503262940973178
66 17.620443829849503 1.0677855666638107 -5.2230534954652885
67 2.962678986745089 -1.4356520819331966 -0.1797984644839761
68 -12.73030952629313 1.8493194902409966 45.02574192602179
69 -20.731335392593227 9.703932495909399 -11.845516349190785
70 -2.940304389140254 5.157856391747261 -1.993273053620762
71 2.7612107131496932 15.499953760637265 6.805671962241113
72 -36.10664027322089 26.983855606423717 -2.503178398796956
73 -0.9115839745142668 1.7110159372812057 -2.6351866217812847
74 -10.261905169965903 9.03713987443602 -20.304266479033643
75 17.542099490747514 6.373952754695757 -12.160065823351283
76 -3.3816239534701196 1.4933285553188862 4.132904422190173
77 -11.35871952744328 -23.919062321274254 10.393235938470042
78 -2.187398364047822 7.630410547366723 -19.502580616321413
79 3.9991883760762392 3.6064302802809616 1.255049516026174
80 -17.182029076481818 6.573709255609969 23.071481056126256
81 9.448204244887695 -22.099724764657747 -13.895207066273755
82 5.017384361681542 -6.4496632305007155 2.339398290883416
83 -3.0431978113005207 10.300449016241103 -2.270483699548133
84 -6.823490828415184 -4.843092165689632 4.831538754133074
85 -1.0973370245010257 -2.181153314963455 -2.5655691465851205
86 26.136318664598264 -18.403907427369305 -17.296891213774828
87 31.69685449724553 7.036634025330372 -0.20757298594243148
88 -0.33015580424984553 1.4531100944800102 -3.1721420320257563
89 7.476426049883441 -0.7891903617985495 3.6908252399230723
90 -27.591396601654186 -14.380749659531691 10.59972833435304
91 -2.6442047722364106 -3.8359155506802147 -3.033804974316244
92 3.7448627872133993 -27.98708922663677 -11.599545126486214
93 -18.34474825264675 9.507163614808603 -18.932748114434936
94 -7.546112535137983 -0.6996873207979867 -1.8749357241341806
95 -21.044297851274415 -16.215015233316063 -8.654217655896177
96 -17.272364402861058 -3.3082442435159636 -21.447298394120335
97 -0.008501423881259611 -6.785892971165654 2.5792863841433555
98 4.635414792583142 -10.488747433641937 10.923760846631838
99 -4.355957503678297 -6.156188209216978 -18.87121768087064
100 -5.222803671917974 -9.35636744494122 -1.0215892299863651
101 14.574563583414388 -19.44880173204871 21.255156657881045
102 -31.279730528006557 3.258374990145651 -17.647737035628616
103 -1.9095099196131473 1.383390622935412 -4.398001772329973
104 -22.4394855429975 2.7885370194040484 -10.228833443958266
105 33.15856959891697 -2.700867344318228 -15.643537178054142
106 -1.9306656596154421 1.1193444499938987 1.0987839822315373
107 17.5184801055377 7.490145197197943 5.804496179607171
108 14.824606704657048 -23.93990027469165 10.169873518715017
109 -6.180797332368847 7.602599134728161 3.4776259037646535
110 0.3811447847042211 6.707561959829596 -3.172124024519729
111 -32.06732856994427 21.956955453395995 7.517907171210671
112 -0.8401086990772172 -9.891096830679542 3.1717624237496542
113 9.85390634388947 -25.689867399445074 -40.87273672876681
114 6.744216913376952 1.2825640728465542 -32.0322031059064
115 2.02954320781742 6.006635619462962 3.125802020676309
116 -17.091818616164673 42.337475800007816 -8.37039212084976
117 21.76423303071546 -11.881311071658745 -23.235561620202706
118 10.96708948085152 -4.245479623277507 0.6311368397705169
119 13.106538169718583 26.40332133119128 4.83994259764807
120 -21.50891383883727 -6.067858226732487 -14.313413124161624
121 -2.6781737044700056 0.13385169508340578 2.064906703197422
122 22.30924401130368 20.341016488373324 -1.0588721906702934
123 10.609987385932117 5.656759688543358 -21.566952460360213
124 1.497699608859911 9.18424685323777 -1.2170314014091548
125 5.709481098634181 20.88845856080522 2.966011496225376
126 12.579969231258719 11.047580201130588 26.597990128517548
127 0.6133057043006656 -4.358651617106268 9.504241305303713
128 2.695854019984096 -13.074863382291394 5.805931901483708
129 -4.088120625951359 10.562859923336989 -16.17226891753351
130 3.047228280382593 2.0471285254097675 1.1220886000813732
131 6.097103197849752 -3.567090669311561 5.431884151375386
132 -2.7666795081997093 4.623321509180971 7.251963933832554
133 -0.050010266030008646 -3.3316782216374796 -0.7490866744140362
134 14.116527091016666 -8.596347014992796 -18.289925998528844
135 -15.470848962372338 -10.904984030994436 -18.470905034925163
136 -4.635032036620998 6.485683475776385 -4.658177326011834
137 -12.165947458766759 -18.501660644190313 3.95114697609996
138 18.967413984010296 -16.3684081380598 15.586420420545284
139 0.9690188380265858 1.593424087603394 -1.9072201161804283
140 22.574552462031157 -3.015696660012592 5.795410512733039
141 -17.37206553148113 3.1917842916630224 1.1122287684524292
142 6.640897506455243 6.270597561153015 9.488461755159722
143 14.538019019577693 -16.162629016522633 -8.261933588377328
144 17.948143832168714 -9.210399304697331 -37.26566444422568
145 -5.590133112349644 1.9428979394541992 2.6763148596341817
146 -6.924006801547901 2.600236815966999 -1.22631206790905
147 -7.747786021066085 2.7564564829384435 -3.076468375919016
148 0.4330818793106649 -1.7330532997442991 0.5330727479686319
149 25.7853559262952 -5.130547726958316 -25.47156903727893
150 11.701332333901751 -0.4228059715167847 -12.37935890097869
151 -5.733370788431198 -1.2137043388763196 8.276943584251764
152 5.308810863050753 27.44507882182349 -0.9124828244724016
153 13.297044071222967 -2.1304596612623743 15.406259161413173
154 5.805087034262041 1.7665533526832624 -1.4448155835947636
155 -14.686349771604636 -38.00382626351646 -8.261284688611347
156 -6.764814645308954 14.601954150829432 -15.09232516598986
157 -1.975731858152652 -8.76839355381703 -0.5137826411439563
158 9.287555417573719 -12.543279951251783 -30.00404737320325
159 6.5267557193860215 -4.176675752216337 -7.359405145282054
160 0.2198290814795752 -6.116841223819794 1.9399588719255318
161 -15.924975080326618 0.433137254420383 8.61627392198733
162 7.947199958353343 4.10363408552163 14.480505794823939
163 -7.51613911932898 -0.5507828924893113 -5.094420782035294
164 3.1679970247615796 26.700749033499527 0.1825982057773569
165 15.888292547595222 15.327599556933919 8.511335684454021
166 -2.094499794500684 4.620235855291572 -3.3421691817261827
167 -30.632118784836347 1.2181048772517495 3.7454230677430895
168 -27.376522978698453 -31.56665954131558 10.515592874094246
169 3.3747177668546633 -6.765709983746517 -3.3648999018376435
170 20.202601518289125 -1.8768090146340308 8.50451092118536
171 1.0181377700497565 14.111555626021177 11.384881743906488
172 -7.8953265455624635 1.473725760626152 2.3069947822684456
173 25.962089287043817 37.50235763001869 9.330023114778072
174 14.425695331436232 10.613010364241843 -6.702392069472211
175 5.05162408480532 5.344732338482634 -4.132489722024978
176 -0.024879800653214622 -21.671882430178226 3.875562589288391
177 -9.195492897891071 24.395750730915125 15.65143075305955
178 7.173523070853601 0.7560317683261404 1.0642357953410304
179 -13.578096188070699 -14.759884712137143 -27.612767185339504
180 9.51495067363344 7.58468163271278 -6.823625418299939
181 -6.472454255229533 11.18787961147079 5.2500026050916775
182 18.94669750610812 -1.7308989037924662 5.925997814789824
183 -19.39525387295762 -20.952201608822914 -11.472588436897246
184 4.431925866731678 -4.298953441063876 2.871297637639167
185 21.347611009043884 6.41981161732881 14.3197350592347
186 12.462494807154915 -18.221283904354063 13.183302232732402
187 4.92889709871198 4.996642661878295 0.6957432986117656
188 28.4304781124751 12.852053311194945 -7.153415588101303
189 -20.76862240090831 -14.586910931192502 -5.117178791658458
190 -4.845893269712779 -2.1274873120883857 1.163855898943403
191 -5.555529383323372 -13.099728147720816 11.988254832708654
192 7.690719912534488 -6.591946021968999 17.001040823853373
