
     Program PWSCF v.7.1 starts on  5Sep2022 at 15: 5:58 

     This program is part of the open-source Quantum ESPRESSO suite
     for quantum simulation of materials; please cite
         "P. Giannozzi et al., J. Phys.:Condens. Matter 21 395502 (2009);
         "P. Giannozzi et al., J. Phys.:Condens. Matter 29 465901 (2017);
         "P. Giannozzi et al., J. Chem. Phys. 152 154105 (2020);
          URL http://www.quantum-espresso.org", 
     in publications or presentations arising from this work. More details at
     http://www.quantum-espresso.org/quote

     Parallel version (MPI), running on     1 processors

     MPI processes distributed on     1 nodes
     8502 MiB available memory on the printing compute node when the environment starts

     Waiting for input...
     Reading input from standard input
Warning: card &CELL ignored
Warning: card / ignored

     Current dimensions of program PWSCF are:
     Max number of different atomic species (ntypx) = 10
     Max number of k-points (npk) =  40000
     Max angular momentum in pseudopotentials (lmaxx) =  4
     file N.pbe-n-kjpaw_psl.1.0.0.UPF: wavefunction(s)  2S renormalized

     gamma-point specific algorithms are used

     Subspace diagonalization in iterative solution of the eigenvalue problem:
     a serial algorithm will be used


     G-vector sticks info
     --------------------
     sticks:   dense  smooth     PW     G-vecs:    dense   smooth      PW
     Sum       11913   11913   2965               979259   979259  122321

     Using Slab Decomposition



     bravais-lattice index     =            1
     lattice parameter (alat)  =      24.9822  a.u.
     unit-cell volume          =   15591.6104 (a.u.)^3
     number of atoms/cell      =            2
     number of atomic types    =            2
     number of electrons       =         6.00
     number of Kohn-Sham states=            7
     kinetic-energy cutoff     =      60.0000  Ry
     charge density cutoff     =     240.0000  Ry
     scf convergence threshold =      1.0E-10
     mixing beta               =       0.5000
     number of iterations used =            8  plain     mixing
     energy convergence thresh.=      1.0E-04
     force convergence thresh. =      1.0E-03
     Exchange-correlation= SLA  PW   PBX  PBC
                           (   1   4   3   4   0   0   0)
     nstep                     =           50


     celldm(1)=  24.982179  celldm(2)=   0.000000  celldm(3)=   0.000000
     celldm(4)=   0.000000  celldm(5)=   0.000000  celldm(6)=   0.000000

     crystal axes: (cart. coord. in units of alat)
               a(1) = (   1.000000   0.000000   0.000000 )  
               a(2) = (   0.000000   1.000000   0.000000 )  
               a(3) = (   0.000000   0.000000   1.000000 )  

     reciprocal axes: (cart. coord. in units 2 pi/alat)
               b(1) = (  1.000000  0.000000  0.000000 )  
               b(2) = (  0.000000  1.000000  0.000000 )  
               b(3) = (  0.000000  0.000000  1.000000 )  


     PseudoPot. # 1 for H  read from file:
     ../../pseudos/H.pbe-tm-new-gipaw-dc.UPF
     MD5 check sum: 0e5abdcbf773fd5bd1c97111569d22ab
     Pseudo is Norm-conserving, Zval =  1.0
     Generated by new atomic code, or converted to UPF format
     Using radial grid of 1261 points,  0 beta functions with: 

     PseudoPot. # 2 for N  read from file:
     ../../pseudos/N.pbe-n-kjpaw_psl.1.0.0.UPF
     MD5 check sum: f3bb4f48f1bc93c19b8c25f14b2123da
     Pseudo is Projector augmented-wave + core cor, Zval =  5.0
     Generated using "atomic" code by A. Dal Corso  v.6.1 svn rev. 13369
     Shape of augmentation charge: PSQ
     Using radial grid of 1085 points,  4 beta functions with: 
                l(1) =   0
                l(2) =   0
                l(3) =   1
                l(4) =   1
     Q(r) pseudized with 0 coefficients 


     atomic species   valence    mass     pseudopotential
        H              1.00     1.00800     H ( 1.00)
        N              5.00    14.00700     N ( 1.00)

     No symmetry found



   Cartesian axes

     site n.     atom                  positions (alat units)
         1           H   tau(   1) = (   0.0000000   0.0000000   0.0000000  )
         2           N   tau(   2) = (   0.0075643   0.0000000   0.0000000  )

     -------------------------------------------------
     Parameters for Dispersion (Grimme-D2) Correction:
     -------------------------------------------------
       atom      VdW radius       C_6     

        H          1.892          4.857
        N          2.640         42.670

     number of k points=     1  Marzari-Vanderbilt smearing, width (Ry)=  0.0200
                       cart. coord. in units 2pi/alat
        k(    1) = (   0.0000000   0.0000000   0.0000000), wk =   2.0000000

     Dense  grid:   489630 G-vectors     FFT dimensions: ( 125, 125, 125)

     Estimated max dynamical RAM per process >     699.82 MB

     Check: negative core charge=   -0.000001

     Initial potential from superposition of free atoms

     starting charge       5.5000, renormalised to       6.0000

     negative rho (up, down):  5.195E-03 0.000E+00
     Starting wfcs are    6 randomized atomic wfcs +    1 random wfcs
     Checking if some PAW data can be deallocated... 

     total cpu time spent up to now is        2.6 secs

     Self-consistent Calculation

     iteration #  1     ecut=    60.00 Ry     beta= 0.50
     Davidson diagonalization with overlap
     ethr =  1.00E-02,  avg # of iterations =  7.0

     negative rho (up, down):  7.745E-03 0.000E+00

     total cpu time spent up to now is        5.0 secs

     total energy              =      13.57963137 Ry
     estimated scf accuracy    <       1.28170798 Ry

     iteration #  2     ecut=    60.00 Ry     beta= 0.50
     Davidson diagonalization with overlap
     ethr =  1.00E-02,  avg # of iterations =  2.0

     negative rho (up, down):  8.354E-03 0.000E+00

     total cpu time spent up to now is        6.8 secs

     total energy              =      13.40574441 Ry
     estimated scf accuracy    <       0.05788487 Ry

     iteration #  3     ecut=    60.00 Ry     beta= 0.50
     Davidson diagonalization with overlap
     ethr =  9.65E-04,  avg # of iterations =  2.0

     negative rho (up, down):  8.420E-03 0.000E+00

     total cpu time spent up to now is        8.5 secs

     total energy              =      13.41308117 Ry
     estimated scf accuracy    <       0.19930183 Ry

     iteration #  4     ecut=    60.00 Ry     beta= 0.50
     Davidson diagonalization with overlap
     ethr =  9.65E-04,  avg # of iterations =  1.0

     negative rho (up, down):  8.583E-03 0.000E+00

     total cpu time spent up to now is       10.2 secs

     total energy              =      13.39542007 Ry
     estimated scf accuracy    <       0.01425286 Ry

     iteration #  5     ecut=    60.00 Ry     beta= 0.50
     Davidson diagonalization with overlap
     ethr =  2.38E-04,  avg # of iterations =  4.0

     negative rho (up, down):  8.602E-03 0.000E+00

     total cpu time spent up to now is       12.1 secs

     total energy              =      13.39405893 Ry
     estimated scf accuracy    <       0.00160967 Ry

     iteration #  6     ecut=    60.00 Ry     beta= 0.50
     Davidson diagonalization with overlap
     ethr =  2.68E-05,  avg # of iterations =  4.0

     negative rho (up, down):  8.617E-03 0.000E+00

     total cpu time spent up to now is       14.1 secs

     total energy              =      13.39410601 Ry
     estimated scf accuracy    <       0.00050772 Ry

     iteration #  7     ecut=    60.00 Ry     beta= 0.50
     Davidson diagonalization with overlap
     ethr =  8.46E-06,  avg # of iterations =  4.0

     negative rho (up, down):  8.628E-03 0.000E+00

     total cpu time spent up to now is       16.0 secs

     total energy              =      13.39407291 Ry
     estimated scf accuracy    <       0.00001122 Ry

     iteration #  8     ecut=    60.00 Ry     beta= 0.50
     Davidson diagonalization with overlap
     ethr =  1.87E-07,  avg # of iterations =  7.0

     negative rho (up, down):  8.649E-03 0.000E+00

     total cpu time spent up to now is       18.3 secs

     total energy              =      13.39407227 Ry
     estimated scf accuracy    <       0.00000789 Ry

     iteration #  9     ecut=    60.00 Ry     beta= 0.50
     Davidson diagonalization with overlap
     ethr =  1.31E-07,  avg # of iterations =  1.0

     negative rho (up, down):  8.651E-03 0.000E+00

     total cpu time spent up to now is       20.0 secs

     total energy              =      13.39407178 Ry
     estimated scf accuracy    <       0.00000011 Ry

     iteration # 10     ecut=    60.00 Ry     beta= 0.50
     Davidson diagonalization with overlap
     ethr =  1.81E-09,  avg # of iterations =  1.0

     negative rho (up, down):  8.651E-03 0.000E+00

     total cpu time spent up to now is       21.7 secs

     total energy              =      13.39407179 Ry
     estimated scf accuracy    <       0.00000011 Ry

     iteration # 11     ecut=    60.00 Ry     beta= 0.50
     Davidson diagonalization with overlap
     ethr =  1.79E-09,  avg # of iterations =  1.0

     negative rho (up, down):  8.651E-03 0.000E+00

     total cpu time spent up to now is       23.4 secs

     total energy              =      13.39407178 Ry
     estimated scf accuracy    <          3.0E-09 Ry

     iteration # 12     ecut=    60.00 Ry     beta= 0.50
     Davidson diagonalization with overlap
     ethr =  5.06E-11,  avg # of iterations =  1.0

     negative rho (up, down):  8.651E-03 0.000E+00

     total cpu time spent up to now is       25.1 secs

     total energy              =      13.39407178 Ry
     estimated scf accuracy    <       0.00000001 Ry

     iteration # 13     ecut=    60.00 Ry     beta= 0.50
     Davidson diagonalization with overlap
     ethr =  5.06E-11,  avg # of iterations =  1.0

     negative rho (up, down):  8.651E-03 0.000E+00

     total cpu time spent up to now is       26.9 secs

     total energy              =      13.39407178 Ry
     estimated scf accuracy    <          9.7E-10 Ry

     iteration # 14     ecut=    60.00 Ry     beta= 0.50
     Davidson diagonalization with overlap
     ethr =  1.61E-11,  avg # of iterations =  1.0

     negative rho (up, down):  8.651E-03 0.000E+00

     total cpu time spent up to now is       28.6 secs

     total energy              =      13.39407178 Ry
     estimated scf accuracy    <          2.4E-10 Ry

     iteration # 15     ecut=    60.00 Ry     beta= 0.50
     Davidson diagonalization with overlap
     ethr =  4.00E-12,  avg # of iterations =  1.0

     negative rho (up, down):  8.651E-03 0.000E+00

     total cpu time spent up to now is       30.2 secs

     End of self-consistent calculation

          k = 0.0000 0.0000 0.0000 ( 61161 PWs)   bands (ev):

   -20.5825  -9.7948  -9.6616  -9.6616  -0.3263   0.4065   0.5560

     the Fermi energy is    -9.6044 ev

!    total energy              =      13.39407179 Ry
     estimated scf accuracy    <          9.8E-12 Ry
     smearing contrib. (-TS)   =      -0.01251064 Ry
     internal energy E=F+TS    =      13.40658243 Ry

     The total energy is F=E-TS. E is the sum of the following terms:
     one-electron contribution =     -43.15420873 Ry
     hartree contribution      =      23.05187001 Ry
     xc contribution           =      -7.22153433 Ry
     ewald contribution        =      48.82914624 Ry
     Dispersion Correction     =      -0.00112612 Ry
     one-center paw contrib.   =      -8.09756464 Ry

     convergence has been achieved in  15 iterations

     negative rho (up, down):  8.651E-03 0.000E+00

     Forces acting on atoms (cartesian axes, Ry/au):

     atom    1 type  1   force =  -280.06027854    0.00000008    0.00000073
     atom    2 type  2   force =   280.06027854   -0.00000008   -0.00000073

     Total force =   280.060279     Total SCF correction =     0.000000

     BFGS Geometry Optimization
     Energy error            =      0.0E+00 Ry
     Gradient error          =      2.8E+02 Ry/Bohr

     number of scf cycles    =   1
     number of bfgs steps    =   0

     energy             new  =      13.3940717852 Ry

     new trust radius        =       0.5000000000 bohr
     new conv_thr            =            1.0E-10 Ry


ATOMIC_POSITIONS (angstrom)
H             0.0000000000        0.0000000000        0.0000000000    0   0   0
N             0.3645886055        0.0000000000        0.0000000000    1   0   0



     Writing config-only to output data dir ./pwscf.save/
     NEW-OLD atomic charge density approx. for the potential

     Check: negative core charge=   -0.000001

     negative rho (up, down):  1.046E-02 0.000E+00

     total cpu time spent up to now is       32.4 secs

     Self-consistent Calculation

     iteration #  1     ecut=    60.00 Ry     beta= 0.50
     Davidson diagonalization with overlap
     ethr =  1.00E-06,  avg # of iterations =  9.0

     negative rho (up, down):  7.318E-03 0.000E+00

     total cpu time spent up to now is       35.6 secs

     total energy              =     -24.36897435 Ry
     estimated scf accuracy    <       0.13509687 Ry

     iteration #  2     ecut=    60.00 Ry     beta= 0.50
     Davidson diagonalization with overlap
     ethr =  2.25E-03,  avg # of iterations =  1.0

     negative rho (up, down):  7.292E-03 0.000E+00

     total cpu time spent up to now is       37.2 secs

     total energy              =     -24.36884982 Ry
     estimated scf accuracy    <       0.02298319 Ry

     iteration #  3     ecut=    60.00 Ry     beta= 0.50
     Davidson diagonalization with overlap
     ethr =  3.83E-04,  avg # of iterations =  1.0

     negative rho (up, down):  7.426E-03 0.000E+00

     total cpu time spent up to now is       38.9 secs

     total energy              =     -24.37025139 Ry
     estimated scf accuracy    <       0.00064584 Ry

     iteration #  4     ecut=    60.00 Ry     beta= 0.50
     Davidson diagonalization with overlap
     ethr =  1.08E-05,  avg # of iterations =  7.0

     negative rho (up, down):  7.466E-03 0.000E+00

     total cpu time spent up to now is       41.3 secs

     total energy              =     -24.37026807 Ry
     estimated scf accuracy    <       0.00002073 Ry

     iteration #  5     ecut=    60.00 Ry     beta= 0.50
     Davidson diagonalization with overlap
     ethr =  3.45E-07,  avg # of iterations =  5.0

     negative rho (up, down):  7.471E-03 0.000E+00

     total cpu time spent up to now is       43.4 secs

     total energy              =     -24.37027052 Ry
     estimated scf accuracy    <       0.00000772 Ry

     iteration #  6     ecut=    60.00 Ry     beta= 0.50
     Davidson diagonalization with overlap
     ethr =  1.29E-07,  avg # of iterations =  1.0

     negative rho (up, down):  7.486E-03 0.000E+00

     total cpu time spent up to now is       45.1 secs

     total energy              =     -24.37027094 Ry
     estimated scf accuracy    <       0.00000020 Ry

     iteration #  7     ecut=    60.00 Ry     beta= 0.50
     Davidson diagonalization with overlap
     ethr =  3.35E-09,  avg # of iterations =  2.0

     negative rho (up, down):  7.484E-03 0.000E+00

     total cpu time spent up to now is       46.9 secs

     total energy              =     -24.37027094 Ry
     estimated scf accuracy    <       0.00000004 Ry

     iteration #  8     ecut=    60.00 Ry     beta= 0.50
     Davidson diagonalization with overlap
     ethr =  5.97E-10,  avg # of iterations =  2.0

     negative rho (up, down):  7.484E-03 0.000E+00

     total cpu time spent up to now is       48.7 secs

     total energy              =     -24.37027094 Ry
     estimated scf accuracy    <          4.8E-10 Ry

     iteration #  9     ecut=    60.00 Ry     beta= 0.50
     Davidson diagonalization with overlap
     ethr =  7.92E-12,  avg # of iterations =  3.0

     negative rho (up, down):  7.484E-03 0.000E+00

     total cpu time spent up to now is       50.6 secs

     total energy              =     -24.37027094 Ry
     estimated scf accuracy    <          1.1E-10 Ry

     iteration # 10     ecut=    60.00 Ry     beta= 0.50
     Davidson diagonalization with overlap
     ethr =  1.86E-12,  avg # of iterations =  1.0

     negative rho (up, down):  7.485E-03 0.000E+00

     total cpu time spent up to now is       52.2 secs

     End of self-consistent calculation

          k = 0.0000 0.0000 0.0000 ( 61161 PWs)   bands (ev):

   -26.1938 -10.1795  -7.5376  -7.5376  -0.4336   0.2171   0.5120

     the Fermi energy is    -7.4997 ev

!    total energy              =     -24.37027095 Ry
     estimated scf accuracy    <          5.7E-11 Ry
     smearing contrib. (-TS)   =      -0.01312732 Ry
     internal energy E=F+TS    =     -24.35714363 Ry

     The total energy is F=E-TS. E is the sum of the following terms:
     one-electron contribution =     -41.57371458 Ry
     hartree contribution      =      21.80996161 Ry
     xc contribution           =      -6.96177217 Ry
     ewald contribution        =      10.42638057 Ry
     Dispersion Correction     =      -0.00000534 Ry
     one-center paw contrib.   =      -8.05799371 Ry

     convergence has been achieved in  10 iterations

     negative rho (up, down):  7.485E-03 0.000E+00

     Forces acting on atoms (cartesian axes, Ry/au):

     atom    1 type  1   force =   -17.60672425   -0.00000001    0.00000003
     atom    2 type  2   force =    17.60672425    0.00000001   -0.00000003

     Total force =    17.606724     Total SCF correction =     0.000009
     Energy error            =      3.8E+01 Ry
     Gradient error          =      1.8E+01 Ry/Bohr

     number of scf cycles    =   2
     number of bfgs steps    =   1

     energy             old  =      13.3940717852 Ry
     energy             new  =     -24.3702709454 Ry

     CASE: energy            _new < energy            _old

     new trust radius        =       0.0335425525 bohr
     new conv_thr            =            1.0E-10 Ry


ATOMIC_POSITIONS (angstrom)
H             0.0000000000        0.0000000000        0.0000000000    0   0   0
N             0.3823385598        0.0000000000        0.0000000000    1   0   0



     Writing config-only to output data dir ./pwscf.save/
     NEW-OLD atomic charge density approx. for the potential

     Check: negative core charge=   -0.000001

     negative rho (up, down):  7.162E-03 0.000E+00

     total cpu time spent up to now is       54.6 secs

     Self-consistent Calculation

     iteration #  1     ecut=    60.00 Ry     beta= 0.50
     Davidson diagonalization with overlap
     ethr =  1.00E-06,  avg # of iterations =  4.0

     negative rho (up, down):  7.227E-03 0.000E+00

     total cpu time spent up to now is       56.8 secs

     total energy              =     -24.92349818 Ry
     estimated scf accuracy    <       0.00102695 Ry

     iteration #  2     ecut=    60.00 Ry     beta= 0.50
     Davidson diagonalization with overlap
     ethr =  1.71E-05,  avg # of iterations =  2.0

     negative rho (up, down):  7.317E-03 0.000E+00

     total cpu time spent up to now is       58.5 secs

     total energy              =     -24.92358257 Ry
     estimated scf accuracy    <       0.00013676 Ry

     iteration #  3     ecut=    60.00 Ry     beta= 0.50
     Davidson diagonalization with overlap
     ethr =  2.28E-06,  avg # of iterations =  1.0

     negative rho (up, down):  7.373E-03 0.000E+00

     total cpu time spent up to now is       60.2 secs

     total energy              =     -24.92358719 Ry
     estimated scf accuracy    <       0.00001489 Ry

     iteration #  4     ecut=    60.00 Ry     beta= 0.50
     Davidson diagonalization with overlap
     ethr =  2.48E-07,  avg # of iterations =  1.0

     negative rho (up, down):  7.381E-03 0.000E+00

     total cpu time spent up to now is       61.9 secs

     total energy              =     -24.92358755 Ry
     estimated scf accuracy    <       0.00000026 Ry

     iteration #  5     ecut=    60.00 Ry     beta= 0.50
     Davidson diagonalization with overlap
     ethr =  4.40E-09,  avg # of iterations =  2.0

     negative rho (up, down):  7.381E-03 0.000E+00

     total cpu time spent up to now is       63.7 secs

     total energy              =     -24.92358757 Ry
     estimated scf accuracy    <          5.1E-09 Ry

     iteration #  6     ecut=    60.00 Ry     beta= 0.50
     Davidson diagonalization with overlap
     ethr =  8.58E-11,  avg # of iterations =  2.0

     negative rho (up, down):  7.382E-03 0.000E+00

     total cpu time spent up to now is       65.5 secs

     total energy              =     -24.92358757 Ry
     estimated scf accuracy    <          9.3E-10 Ry

     iteration #  7     ecut=    60.00 Ry     beta= 0.50
     Davidson diagonalization with overlap
     ethr =  1.56E-11,  avg # of iterations =  1.0

     negative rho (up, down):  7.382E-03 0.000E+00

     total cpu time spent up to now is       67.2 secs

     total energy              =     -24.92358757 Ry
     estimated scf accuracy    <          5.7E-10 Ry

     iteration #  8     ecut=    60.00 Ry     beta= 0.50
     Davidson diagonalization with overlap
     ethr =  9.43E-12,  avg # of iterations =  1.0

     negative rho (up, down):  7.382E-03 0.000E+00

     total cpu time spent up to now is       68.8 secs

     End of self-consistent calculation

          k = 0.0000 0.0000 0.0000 ( 61161 PWs)   bands (ev):

   -26.2712 -10.1597  -7.4675  -7.4675  -0.4416   0.2078   0.5083

     the Fermi energy is    -7.4296 ev

!    total energy              =     -24.92358757 Ry
     estimated scf accuracy    <          2.0E-11 Ry
     smearing contrib. (-TS)   =      -0.01312732 Ry
     internal energy E=F+TS    =     -24.91046026 Ry

     The total energy is F=E-TS. E is the sum of the following terms:
     one-electron contribution =     -41.36408382 Ry
     hartree contribution      =      21.68619436 Ry
     xc contribution           =      -6.93085554 Ry
     ewald contribution        =       9.75261922 Ry
     Dispersion Correction     =      -0.00000478 Ry
     one-center paw contrib.   =      -8.05432968 Ry

     convergence has been achieved in   8 iterations

     negative rho (up, down):  7.382E-03 0.000E+00

     Forces acting on atoms (cartesian axes, Ry/au):

     atom    1 type  1   force =   -15.43650791    0.00000000   -0.00000000
     atom    2 type  2   force =    15.43650791   -0.00000000    0.00000000

     Total force =    15.436508     Total SCF correction =     0.000006
     Energy error            =      5.5E-01 Ry
     Gradient error          =      1.5E+01 Ry/Bohr

     number of scf cycles    =   3
     number of bfgs steps    =   2

     energy             old  =     -24.3702709454 Ry
     energy             new  =     -24.9235875702 Ry

     CASE: energy            _new < energy            _old


     WARNING: bfgs curvature condition failed, Theta= 0.912
     new trust radius        =       0.0368968078 bohr
     new conv_thr            =            1.0E-10 Ry


ATOMIC_POSITIONS (angstrom)
H             0.0000000000        0.0000000000        0.0000000000    0   0   0
N             0.4018635097        0.0000000000        0.0000000000    1   0   0



     Writing config-only to output data dir ./pwscf.save/
     NEW-OLD atomic charge density approx. for the potential

     Check: negative core charge=   -0.000001

     negative rho (up, down):  7.000E-03 0.000E+00

     total cpu time spent up to now is       71.1 secs

     Self-consistent Calculation

     iteration #  1     ecut=    60.00 Ry     beta= 0.50
     Davidson diagonalization with overlap
     ethr =  1.00E-06,  avg # of iterations =  4.0

     negative rho (up, down):  7.082E-03 0.000E+00

     total cpu time spent up to now is       73.3 secs

     total energy              =     -25.45406970 Ry
     estimated scf accuracy    <       0.00124608 Ry

     iteration #  2     ecut=    60.00 Ry     beta= 0.50
     Davidson diagonalization with overlap
     ethr =  2.08E-05,  avg # of iterations =  2.0

     negative rho (up, down):  7.186E-03 0.000E+00

     total cpu time spent up to now is       75.0 secs

     total energy              =     -25.45418398 Ry
     estimated scf accuracy    <       0.00015692 Ry

     iteration #  3     ecut=    60.00 Ry     beta= 0.50
     Davidson diagonalization with overlap
     ethr =  2.62E-06,  avg # of iterations =  1.0

     negative rho (up, down):  7.254E-03 0.000E+00

     total cpu time spent up to now is       76.7 secs

     total energy              =     -25.45418973 Ry
     estimated scf accuracy    <       0.00001856 Ry

     iteration #  4     ecut=    60.00 Ry     beta= 0.50
     Davidson diagonalization with overlap
     ethr =  3.09E-07,  avg # of iterations =  1.0

     negative rho (up, down):  7.263E-03 0.000E+00

     total cpu time spent up to now is       78.4 secs

     total energy              =     -25.45419019 Ry
     estimated scf accuracy    <       0.00000032 Ry

     iteration #  5     ecut=    60.00 Ry     beta= 0.50
     Davidson diagonalization with overlap
     ethr =  5.39E-09,  avg # of iterations =  2.0

     negative rho (up, down):  7.264E-03 0.000E+00

     total cpu time spent up to now is       80.2 secs

     total energy              =     -25.45419022 Ry
     estimated scf accuracy    <          7.2E-09 Ry

     iteration #  6     ecut=    60.00 Ry     beta= 0.50
     Davidson diagonalization with overlap
     ethr =  1.20E-10,  avg # of iterations =  1.0

     negative rho (up, down):  7.264E-03 0.000E+00

     total cpu time spent up to now is       81.9 secs

     total energy              =     -25.45419022 Ry
     estimated scf accuracy    <          2.8E-09 Ry

     iteration #  7     ecut=    60.00 Ry     beta= 0.50
     Davidson diagonalization with overlap
     ethr =  4.71E-11,  avg # of iterations =  1.0

     negative rho (up, down):  7.265E-03 0.000E+00

     total cpu time spent up to now is       83.6 secs

     total energy              =     -25.45419022 Ry
     estimated scf accuracy    <          3.0E-10 Ry

     iteration #  8     ecut=    60.00 Ry     beta= 0.50
     Davidson diagonalization with overlap
     ethr =  4.92E-12,  avg # of iterations =  1.0

     negative rho (up, down):  7.265E-03 0.000E+00

     total cpu time spent up to now is       85.2 secs

     End of self-consistent calculation

          k = 0.0000 0.0000 0.0000 ( 61161 PWs)   bands (ev):

   -26.3016 -10.1325  -7.4017  -7.4017  -0.4497   0.1989   0.5047

     the Fermi energy is    -7.3638 ev

!    total energy              =     -25.45419023 Ry
     estimated scf accuracy    <          1.7E-11 Ry
     smearing contrib. (-TS)   =      -0.01312732 Ry
     internal energy E=F+TS    =     -25.44106291 Ry

     The total energy is F=E-TS. E is the sum of the following terms:
     one-electron contribution =     -41.12298399 Ry
     hartree contribution      =      21.54772953 Ry
     xc contribution           =      -6.89582725 Ry
     ewald contribution        =       9.08023606 Ry
     Dispersion Correction     =      -0.00000430 Ry
     one-center paw contrib.   =      -8.05021296 Ry

     convergence has been achieved in   8 iterations

     negative rho (up, down):  7.265E-03 0.000E+00

     Forces acting on atoms (cartesian axes, Ry/au):

     atom    1 type  1   force =   -13.37798968    0.00000000   -0.00000001
     atom    2 type  2   force =    13.37798968   -0.00000000    0.00000001

     Total force =    13.377990     Total SCF correction =     0.000007
     Energy error            =      5.3E-01 Ry
     Gradient error          =      1.3E+01 Ry/Bohr

     number of scf cycles    =   4
     number of bfgs steps    =   3

     energy             old  =     -24.9235875702 Ry
     energy             new  =     -25.4541902258 Ry

     CASE: energy            _new < energy            _old

     new trust radius        =       0.0553452116 bohr
     new conv_thr            =            1.0E-10 Ry


ATOMIC_POSITIONS (angstrom)
H             0.0000000000        0.0000000000        0.0000000000    0   0   0
N             0.4311509344        0.0000000000        0.0000000000    1   0   0



     Writing config-only to output data dir ./pwscf.save/
     NEW-OLD atomic charge density approx. for the potential

     Check: negative core charge=   -0.000001

     negative rho (up, down):  6.593E-03 0.000E+00

     total cpu time spent up to now is       87.5 secs

     Self-consistent Calculation

     iteration #  1     ecut=    60.00 Ry     beta= 0.50
     Davidson diagonalization with overlap
     ethr =  1.00E-06,  avg # of iterations =  4.0

     negative rho (up, down):  6.747E-03 0.000E+00

     total cpu time spent up to now is       89.8 secs

     total energy              =     -26.12102846 Ry
     estimated scf accuracy    <       0.00277467 Ry

     iteration #  2     ecut=    60.00 Ry     beta= 0.50
     Davidson diagonalization with overlap
     ethr =  4.62E-05,  avg # of iterations =  2.0

     negative rho (up, down):  6.935E-03 0.000E+00

     total cpu time spent up to now is       91.6 secs

     total energy              =     -26.12131021 Ry
     estimated scf accuracy    <       0.00032986 Ry

     iteration #  3     ecut=    60.00 Ry     beta= 0.50
     Davidson diagonalization with overlap
     ethr =  5.50E-06,  avg # of iterations =  1.0

     negative rho (up, down):  7.064E-03 0.000E+00

     total cpu time spent up to now is       93.3 secs

     total energy              =     -26.12132271 Ry
     estimated scf accuracy    <       0.00004169 Ry

     iteration #  4     ecut=    60.00 Ry     beta= 0.50
     Davidson diagonalization with overlap
     ethr =  6.95E-07,  avg # of iterations =  1.0

     negative rho (up, down):  7.081E-03 0.000E+00

     total cpu time spent up to now is       95.0 secs

     total energy              =     -26.12132365 Ry
     estimated scf accuracy    <       0.00000080 Ry

     iteration #  5     ecut=    60.00 Ry     beta= 0.50
     Davidson diagonalization with overlap
     ethr =  1.33E-08,  avg # of iterations =  2.0

     negative rho (up, down):  7.082E-03 0.000E+00

     total cpu time spent up to now is       96.8 secs

     total energy              =     -26.12132374 Ry
     estimated scf accuracy    <       0.00000003 Ry

     iteration #  6     ecut=    60.00 Ry     beta= 0.50
     Davidson diagonalization with overlap
     ethr =  5.72E-10,  avg # of iterations =  1.0

     negative rho (up, down):  7.083E-03 0.000E+00

     total cpu time spent up to now is       98.5 secs

     total energy              =     -26.12132374 Ry
     estimated scf accuracy    <          8.6E-09 Ry

     iteration #  7     ecut=    60.00 Ry     beta= 0.50
     Davidson diagonalization with overlap
     ethr =  1.43E-10,  avg # of iterations =  2.0

     negative rho (up, down):  7.083E-03 0.000E+00

     total cpu time spent up to now is      100.3 secs

     total energy              =     -26.12132374 Ry
     estimated scf accuracy    <          6.4E-10 Ry

     iteration #  8     ecut=    60.00 Ry     beta= 0.50
     Davidson diagonalization with overlap
     ethr =  1.06E-11,  avg # of iterations =  1.0

     negative rho (up, down):  7.083E-03 0.000E+00

     total cpu time spent up to now is      101.9 secs

     End of self-consistent calculation

          k = 0.0000 0.0000 0.0000 ( 61161 PWs)   bands (ev):

   -26.2511 -10.0852  -7.3211  -7.3211  -0.4602   0.1879   0.4996

     the Fermi energy is    -7.2832 ev

!    total energy              =     -26.12132374 Ry
     estimated scf accuracy    <          3.2E-11 Ry
     smearing contrib. (-TS)   =      -0.01312732 Ry
     internal energy E=F+TS    =     -26.10819642 Ry

     The total energy is F=E-TS. E is the sum of the following terms:
     one-electron contribution =     -40.74552482 Ry
     hartree contribution      =      21.33743641 Ry
     xc contribution           =      -6.84200804 Ry
     ewald contribution        =       8.18586565 Ry
     Dispersion Correction     =      -0.00000376 Ry
     one-center paw contrib.   =      -8.04396186 Ry

     convergence has been achieved in   8 iterations

     negative rho (up, down):  7.083E-03 0.000E+00

     Forces acting on atoms (cartesian axes, Ry/au):

     atom    1 type  1   force =   -10.82780223   -0.00000000    0.00000001
     atom    2 type  2   force =    10.82780223    0.00000000   -0.00000001

     Total force =    10.827802     Total SCF correction =     0.000006
     Energy error            =      6.7E-01 Ry
     Gradient error          =      1.1E+01 Ry/Bohr

     number of scf cycles    =   5
     number of bfgs steps    =   4

     energy             old  =     -25.4541902258 Ry
     energy             new  =     -26.1213237357 Ry

     CASE: energy            _new < energy            _old

     new trust radius        =       0.0830178175 bohr
     new conv_thr            =            1.0E-10 Ry


ATOMIC_POSITIONS (angstrom)
H             0.0000000000        0.0000000000        0.0000000000    0   0   0
N             0.4750820715        0.0000000000        0.0000000000    1   0   0



     Writing config-only to output data dir ./pwscf.save/
     NEW-OLD atomic charge density approx. for the potential

     Check: negative core charge=   -0.000001

     negative rho (up, down):  5.929E-03 0.000E+00

     total cpu time spent up to now is      104.3 secs

     Self-consistent Calculation

     iteration #  1     ecut=    60.00 Ry     beta= 0.50
     Davidson diagonalization with overlap
     ethr =  1.00E-06,  avg # of iterations =  5.0

     negative rho (up, down):  6.215E-03 0.000E+00

     total cpu time spent up to now is      106.8 secs

     total energy              =     -26.89301189 Ry
     estimated scf accuracy    <       0.00602592 Ry

     iteration #  2     ecut=    60.00 Ry     beta= 0.50
     Davidson diagonalization with overlap
     ethr =  1.00E-04,  avg # of iterations =  2.0

     negative rho (up, down):  6.549E-03 0.000E+00

     total cpu time spent up to now is      108.6 secs

     total energy              =     -26.89369621 Ry
     estimated scf accuracy    <       0.00066455 Ry

     iteration #  3     ecut=    60.00 Ry     beta= 0.50
     Davidson diagonalization with overlap
     ethr =  1.11E-05,  avg # of iterations =  1.0

     negative rho (up, down):  6.791E-03 0.000E+00

     total cpu time spent up to now is      110.3 secs

     total energy              =     -26.89372318 Ry
     estimated scf accuracy    <       0.00009052 Ry

     iteration #  4     ecut=    60.00 Ry     beta= 0.50
     Davidson diagonalization with overlap
     ethr =  1.51E-06,  avg # of iterations =  2.0

     negative rho (up, down):  6.824E-03 0.000E+00

     total cpu time spent up to now is      112.1 secs

     total energy              =     -26.89372534 Ry
     estimated scf accuracy    <       0.00000187 Ry

     iteration #  5     ecut=    60.00 Ry     beta= 0.50
     Davidson diagonalization with overlap
     ethr =  3.11E-08,  avg # of iterations =  2.0

     negative rho (up, down):  6.826E-03 0.000E+00

     total cpu time spent up to now is      113.9 secs

     total energy              =     -26.89372555 Ry
     estimated scf accuracy    <       0.00000009 Ry

     iteration #  6     ecut=    60.00 Ry     beta= 0.50
     Davidson diagonalization with overlap
     ethr =  1.46E-09,  avg # of iterations =  2.0

     negative rho (up, down):  6.827E-03 0.000E+00

     total cpu time spent up to now is      115.7 secs

     total energy              =     -26.89372555 Ry
     estimated scf accuracy    <       0.00000002 Ry

     iteration #  7     ecut=    60.00 Ry     beta= 0.50
     Davidson diagonalization with overlap
     ethr =  2.62E-10,  avg # of iterations =  2.0

     negative rho (up, down):  6.828E-03 0.000E+00

     total cpu time spent up to now is      117.5 secs

     total energy              =     -26.89372555 Ry
     estimated scf accuracy    <          9.5E-10 Ry

     iteration #  8     ecut=    60.00 Ry     beta= 0.50
     Davidson diagonalization with overlap
     ethr =  1.58E-11,  avg # of iterations =  1.0

     negative rho (up, down):  6.828E-03 0.000E+00

     total cpu time spent up to now is      119.3 secs

     total energy              =     -26.89372555 Ry
     estimated scf accuracy    <          1.5E-10 Ry

     iteration #  9     ecut=    60.00 Ry     beta= 0.50
     Davidson diagonalization with overlap
     ethr =  2.56E-12,  avg # of iterations =  2.0

     negative rho (up, down):  6.828E-03 0.000E+00

     total cpu time spent up to now is      121.0 secs

     End of self-consistent calculation

          k = 0.0000 0.0000 0.0000 ( 61161 PWs)   bands (ev):

   -25.9986 -10.0113  -7.2293  -7.2293  -0.4730   0.1760   0.4938

     the Fermi energy is    -7.1914 ev

!    total energy              =     -26.89372555 Ry
     estimated scf accuracy    <          1.2E-12 Ry
     smearing contrib. (-TS)   =      -0.01312732 Ry
     internal energy E=F+TS    =     -26.88059823 Ry

     The total energy is F=E-TS. E is the sum of the following terms:
     one-electron contribution =     -40.15830426 Ry
     hartree contribution      =      21.02199516 Ry
     xc contribution           =      -6.76060839 Ry
     ewald contribution        =       7.05111024 Ry
     Dispersion Correction     =      -0.00000322 Ry
     one-center paw contrib.   =      -8.03478776 Ry

     convergence has been achieved in   9 iterations

     negative rho (up, down):  6.828E-03 0.000E+00

     Forces acting on atoms (cartesian axes, Ry/au):

     atom    1 type  1   force =    -7.94241892   -0.00000000    0.00000000
     atom    2 type  2   force =     7.94241892    0.00000000   -0.00000000

     Total force =     7.942419     Total SCF correction =     0.000000
     Energy error            =      7.7E-01 Ry
     Gradient error          =      7.9E+00 Ry/Bohr

     number of scf cycles    =   6
     number of bfgs steps    =   5

     energy             old  =     -26.1213237357 Ry
     energy             new  =     -26.8937255468 Ry

     CASE: energy            _new < energy            _old

     new trust radius        =       0.1245267262 bohr
     new conv_thr            =            1.0E-10 Ry


ATOMIC_POSITIONS (angstrom)
H             0.0000000000        0.0000000000        0.0000000000    0   0   0
N             0.5409787771        0.0000000000        0.0000000000    1   0   0



     Writing config-only to output data dir ./pwscf.save/
     NEW-OLD atomic charge density approx. for the potential

     Check: negative core charge=   -0.000001

     negative rho (up, down):  4.930E-03 0.000E+00

     total cpu time spent up to now is      123.4 secs

     Self-consistent Calculation

     iteration #  1     ecut=    60.00 Ry     beta= 0.50
     Davidson diagonalization with overlap
     ethr =  1.00E-06,  avg # of iterations =  5.0

     negative rho (up, down):  5.415E-03 0.000E+00

     total cpu time spent up to now is      126.1 secs

     total energy              =     -27.68726867 Ry
     estimated scf accuracy    <       0.01211436 Ry

     iteration #  2     ecut=    60.00 Ry     beta= 0.50
     Davidson diagonalization with overlap
     ethr =  2.02E-04,  avg # of iterations =  2.0

     negative rho (up, down):  5.956E-03 0.000E+00

     total cpu time spent up to now is      127.9 secs

     total energy              =     -27.68871643 Ry
     estimated scf accuracy    <       0.00127945 Ry

     iteration #  3     ecut=    60.00 Ry     beta= 0.50
     Davidson diagonalization with overlap
     ethr =  2.13E-05,  avg # of iterations =  1.0

     negative rho (up, down):  6.354E-03 0.000E+00

     total cpu time spent up to now is      129.6 secs

     total energy              =     -27.68876971 Ry
     estimated scf accuracy    <       0.00018034 Ry

     iteration #  4     ecut=    60.00 Ry     beta= 0.50
     Davidson diagonalization with overlap
     ethr =  3.01E-06,  avg # of iterations =  4.0

     negative rho (up, down):  6.408E-03 0.000E+00

     total cpu time spent up to now is      131.5 secs

     total energy              =     -27.68877436 Ry
     estimated scf accuracy    <       0.00000420 Ry

     iteration #  5     ecut=    60.00 Ry     beta= 0.50
     Davidson diagonalization with overlap
     ethr =  7.01E-08,  avg # of iterations =  2.0

     negative rho (up, down):  6.411E-03 0.000E+00

     total cpu time spent up to now is      133.3 secs

     total energy              =     -27.68877492 Ry
     estimated scf accuracy    <       0.00000044 Ry

     iteration #  6     ecut=    60.00 Ry     beta= 0.50
     Davidson diagonalization with overlap
     ethr =  7.34E-09,  avg # of iterations =  1.0

     negative rho (up, down):  6.414E-03 0.000E+00

     total cpu time spent up to now is      135.0 secs

     total energy              =     -27.68877490 Ry
     estimated scf accuracy    <       0.00000009 Ry

     iteration #  7     ecut=    60.00 Ry     beta= 0.50
     Davidson diagonalization with overlap
     ethr =  1.51E-09,  avg # of iterations =  2.0

     negative rho (up, down):  6.415E-03 0.000E+00

     total cpu time spent up to now is      136.9 secs

     total energy              =     -27.68877492 Ry
     estimated scf accuracy    <          2.2E-09 Ry

     iteration #  8     ecut=    60.00 Ry     beta= 0.50
     Davidson diagonalization with overlap
     ethr =  3.74E-11,  avg # of iterations =  1.0

     negative rho (up, down):  6.415E-03 0.000E+00

     total cpu time spent up to now is      138.5 secs

     End of self-consistent calculation

          k = 0.0000 0.0000 0.0000 ( 61161 PWs)   bands (ev):

   -25.3516  -9.9163  -7.1260  -7.1260  -0.4865   0.1652   0.4879

     the Fermi energy is    -7.0881 ev

!    total energy              =     -27.68877492 Ry
     estimated scf accuracy    <          6.5E-11 Ry
     smearing contrib. (-TS)   =      -0.01312732 Ry
     internal energy E=F+TS    =     -27.67564761 Ry

     The total energy is F=E-TS. E is the sum of the following terms:
     one-electron contribution =     -39.26766181 Ry
     hartree contribution      =      20.56214944 Ry
     xc contribution           =      -6.64214864 Ry
     ewald contribution        =       5.69463242 Ry
     Dispersion Correction     =      -0.00000277 Ry
     one-center paw contrib.   =      -8.02261625 Ry

     convergence has been achieved in   8 iterations

     negative rho (up, down):  6.415E-03 0.000E+00

     Forces acting on atoms (cartesian axes, Ry/au):

     atom    1 type  1   force =    -5.05612368   -0.00000000    0.00000000
     atom    2 type  2   force =     5.05612368    0.00000000   -0.00000000

     Total force =     5.056124     Total SCF correction =     0.000011
     Energy error            =      8.0E-01 Ry
     Gradient error          =      5.1E+00 Ry/Bohr

     number of scf cycles    =   7
     number of bfgs steps    =   6

     energy             old  =     -26.8937255468 Ry
     energy             new  =     -27.6887749209 Ry

     CASE: energy            _new < energy            _old

     new trust radius        =       0.1867900893 bohr
     new conv_thr            =            1.0E-10 Ry


ATOMIC_POSITIONS (angstrom)
H             0.0000000000        0.0000000000        0.0000000000    0   0   0
N             0.6398238356        0.0000000000        0.0000000000    1   0   0



     Writing config-only to output data dir ./pwscf.save/
     NEW-OLD atomic charge density approx. for the potential

     Check: negative core charge=   -0.000001

     negative rho (up, down):  4.014E-03 0.000E+00

     total cpu time spent up to now is      140.9 secs

     Self-consistent Calculation

     iteration #  1     ecut=    60.00 Ry     beta= 0.50
     Davidson diagonalization with overlap
     ethr =  1.00E-06,  avg # of iterations =  8.0

     negative rho (up, down):  4.697E-03 0.000E+00

     total cpu time spent up to now is      143.9 secs

     total energy              =     -28.37492640 Ry
     estimated scf accuracy    <       0.02184763 Ry

     iteration #  2     ecut=    60.00 Ry     beta= 0.50
     Davidson diagonalization with overlap
     ethr =  3.64E-04,  avg # of iterations =  2.0

     negative rho (up, down):  5.377E-03 0.000E+00

     total cpu time spent up to now is      145.7 secs

     total energy              =     -28.37746431 Ry
     estimated scf accuracy    <       0.00232334 Ry

     iteration #  3     ecut=    60.00 Ry     beta= 0.50
     Davidson diagonalization with overlap
     ethr =  3.87E-05,  avg # of iterations =  1.0

     negative rho (up, down):  5.859E-03 0.000E+00

     total cpu time spent up to now is      147.4 secs

     total energy              =     -28.37755146 Ry
     estimated scf accuracy    <       0.00032532 Ry

     iteration #  4     ecut=    60.00 Ry     beta= 0.50
     Davidson diagonalization with overlap
     ethr =  5.42E-06,  avg # of iterations =  4.0

     negative rho (up, down):  5.924E-03 0.000E+00

     total cpu time spent up to now is      149.3 secs

     total energy              =     -28.37755954 Ry
     estimated scf accuracy    <       0.00000902 Ry

     iteration #  5     ecut=    60.00 Ry     beta= 0.50
     Davidson diagonalization with overlap
     ethr =  1.50E-07,  avg # of iterations =  2.0

     negative rho (up, down):  5.931E-03 0.000E+00

     total cpu time spent up to now is      151.2 secs

     total energy              =     -28.37756081 Ry
     estimated scf accuracy    <       0.00000253 Ry

     iteration #  6     ecut=    60.00 Ry     beta= 0.50
     Davidson diagonalization with overlap
     ethr =  4.22E-08,  avg # of iterations =  1.0

     negative rho (up, down):  5.935E-03 0.000E+00

     total cpu time spent up to now is      152.9 secs

     total energy              =     -28.37756082 Ry
     estimated scf accuracy    <       0.00000027 Ry

     iteration #  7     ecut=    60.00 Ry     beta= 0.50
     Davidson diagonalization with overlap
     ethr =  4.54E-09,  avg # of iterations =  2.0

     negative rho (up, down):  5.936E-03 0.000E+00

     total cpu time spent up to now is      154.7 secs

     total energy              =     -28.37756088 Ry
     estimated scf accuracy    <          4.3E-09 Ry

     iteration #  8     ecut=    60.00 Ry     beta= 0.50
     Davidson diagonalization with overlap
     ethr =  7.16E-11,  avg # of iterations =  2.0

     negative rho (up, down):  5.936E-03 0.000E+00

     total cpu time spent up to now is      156.6 secs

     total energy              =     -28.37756087 Ry
     estimated scf accuracy    <          1.8E-10 Ry

     iteration #  9     ecut=    60.00 Ry     beta= 0.50
     Davidson diagonalization with overlap
     ethr =  3.06E-12,  avg # of iterations =  2.0

     negative rho (up, down):  5.936E-03 0.000E+00

     total cpu time spent up to now is      158.3 secs

     End of self-consistent calculation

          k = 0.0000 0.0000 0.0000 ( 61161 PWs)   bands (ev):

   -24.1245  -9.8160  -7.0005  -7.0005  -0.5044   0.1516   0.4791

     the Fermi energy is    -6.9626 ev

!    total energy              =     -28.37756088 Ry
     estimated scf accuracy    <          1.3E-11 Ry
     smearing contrib. (-TS)   =      -0.01312732 Ry
     internal energy E=F+TS    =     -28.36443356 Ry

     The total energy is F=E-TS. E is the sum of the following terms:
     one-electron contribution =     -37.97918151 Ry
     hartree contribution      =      19.91987812 Ry
     xc contribution           =      -6.47959867 Ry
     ewald contribution        =       4.18401823 Ry
     Dispersion Correction     =      -0.00000247 Ry
     one-center paw contrib.   =      -8.00954726 Ry

     convergence has been achieved in   9 iterations

     negative rho (up, down):  5.936E-03 0.000E+00

     Forces acting on atoms (cartesian axes, Ry/au):

     atom    1 type  1   force =    -2.58936043    0.00000000   -0.00000001
     atom    2 type  2   force =     2.58936043   -0.00000000    0.00000001

     Total force =     2.589360     Total SCF correction =     0.000001
     Energy error            =      6.9E-01 Ry
     Gradient error          =      2.6E+00 Ry/Bohr

     number of scf cycles    =   8
     number of bfgs steps    =   7

     energy             old  =     -27.6887749209 Ry
     energy             new  =     -28.3775608756 Ry

     CASE: energy            _new < energy            _old

     new trust radius        =       0.1960734844 bohr
     new conv_thr            =            1.0E-10 Ry


ATOMIC_POSITIONS (angstrom)
H             0.0000000000        0.0000000000        0.0000000000    0   0   0
N             0.7435814552        0.0000000000        0.0000000000    1   0   0



     Writing config-only to output data dir ./pwscf.save/
     NEW-OLD atomic charge density approx. for the potential

     Check: negative core charge=   -0.000001

     negative rho (up, down):  4.288E-03 0.000E+00

     total cpu time spent up to now is      160.7 secs

     Self-consistent Calculation

     iteration #  1     ecut=    60.00 Ry     beta= 0.50
     Davidson diagonalization with overlap
     ethr =  1.00E-06,  avg # of iterations =  7.0

     negative rho (up, down):  4.688E-03 0.000E+00

     total cpu time spent up to now is      163.6 secs

     total energy              =     -28.73770456 Ry
     estimated scf accuracy    <       0.01824309 Ry

     iteration #  2     ecut=    60.00 Ry     beta= 0.50
     Davidson diagonalization with overlap
     ethr =  3.04E-04,  avg # of iterations =  2.0

     negative rho (up, down):  5.170E-03 0.000E+00

     total cpu time spent up to now is      165.4 secs

     total energy              =     -28.73971485 Ry
     estimated scf accuracy    <       0.00198081 Ry

     iteration #  3     ecut=    60.00 Ry     beta= 0.50
     Davidson diagonalization with overlap
     ethr =  3.30E-05,  avg # of iterations =  1.0

     negative rho (up, down):  5.521E-03 0.000E+00

     total cpu time spent up to now is      167.1 secs

     total energy              =     -28.73977080 Ry
     estimated scf accuracy    <       0.00028108 Ry

     iteration #  4     ecut=    60.00 Ry     beta= 0.50
     Davidson diagonalization with overlap
     ethr =  4.68E-06,  avg # of iterations =  2.0

     negative rho (up, down):  5.564E-03 0.000E+00

     total cpu time spent up to now is      168.9 secs

     total energy              =     -28.73977735 Ry
     estimated scf accuracy    <       0.00000812 Ry

     iteration #  5     ecut=    60.00 Ry     beta= 0.50
     Davidson diagonalization with overlap
     ethr =  1.35E-07,  avg # of iterations =  2.0

     negative rho (up, down):  5.572E-03 0.000E+00

     total cpu time spent up to now is      170.7 secs

     total energy              =     -28.73977877 Ry
     estimated scf accuracy    <       0.00000102 Ry

     iteration #  6     ecut=    60.00 Ry     beta= 0.50
     Davidson diagonalization with overlap
     ethr =  1.71E-08,  avg # of iterations =  1.0

     negative rho (up, down):  5.574E-03 0.000E+00

     total cpu time spent up to now is      172.4 secs

     total energy              =     -28.73977879 Ry
     estimated scf accuracy    <       0.00000023 Ry

     iteration #  7     ecut=    60.00 Ry     beta= 0.50
     Davidson diagonalization with overlap
     ethr =  3.83E-09,  avg # of iterations =  2.0

     negative rho (up, down):  5.576E-03 0.000E+00

     total cpu time spent up to now is      174.3 secs

     total energy              =     -28.73977883 Ry
     estimated scf accuracy    <          3.0E-09 Ry

     iteration #  8     ecut=    60.00 Ry     beta= 0.50
     Davidson diagonalization with overlap
     ethr =  4.94E-11,  avg # of iterations =  2.0

     negative rho (up, down):  5.575E-03 0.000E+00

     total cpu time spent up to now is      176.1 secs

     total energy              =     -28.73977883 Ry
     estimated scf accuracy    <          7.1E-10 Ry

     iteration #  9     ecut=    60.00 Ry     beta= 0.50
     Davidson diagonalization with overlap
     ethr =  1.18E-11,  avg # of iterations =  2.0

     negative rho (up, down):  5.575E-03 0.000E+00

     total cpu time spent up to now is      177.9 secs

     End of self-consistent calculation

          k = 0.0000 0.0000 0.0000 ( 61161 PWs)   bands (ev):

   -22.8394  -9.7306  -6.8882  -6.8882  -0.5263   0.1331   0.4691

     the Fermi energy is    -6.8503 ev

!    total energy              =     -28.73977883 Ry
     estimated scf accuracy    <          3.2E-11 Ry
     smearing contrib. (-TS)   =      -0.01312732 Ry
     internal energy E=F+TS    =     -28.72665151 Ry

     The total energy is F=E-TS. E is the sum of the following terms:
     one-electron contribution =     -36.73705540 Ry
     hartree contribution      =      19.31237784 Ry
     xc contribution           =      -6.33071076 Ry
     ewald contribution        =       3.03064237 Ry
     Dispersion Correction     =      -0.00000242 Ry
     one-center paw contrib.   =      -8.00190314 Ry

     convergence has been achieved in   9 iterations

     negative rho (up, down):  5.575E-03 0.000E+00

     Forces acting on atoms (cartesian axes, Ry/au):

     atom    1 type  1   force =    -1.25255296    0.00000000   -0.00000001
     atom    2 type  2   force =     1.25255296   -0.00000000    0.00000001

     Total force =     1.252553     Total SCF correction =     0.000006
     Energy error            =      3.6E-01 Ry
     Gradient error          =      1.3E+00 Ry/Bohr

     number of scf cycles    =   9
     number of bfgs steps    =   8

     energy             old  =     -28.3775608756 Ry
     energy             new  =     -28.7397788257 Ry

     CASE: energy            _new < energy            _old

     new trust radius        =       0.1837156267 bohr
     new conv_thr            =            1.0E-10 Ry


ATOMIC_POSITIONS (angstrom)
H             0.0000000000        0.0000000000        0.0000000000    0   0   0
N             0.8407995781        0.0000000000        0.0000000000    1   0   0



     Writing config-only to output data dir ./pwscf.save/
     NEW-OLD atomic charge density approx. for the potential

     Check: negative core charge=   -0.000001

     negative rho (up, down):  4.736E-03 0.000E+00

     total cpu time spent up to now is      180.3 secs

     Self-consistent Calculation

     iteration #  1     ecut=    60.00 Ry     beta= 0.50
     Davidson diagonalization with overlap
     ethr =  1.00E-06,  avg # of iterations =  7.0

     negative rho (up, down):  4.794E-03 0.000E+00

     total cpu time spent up to now is      183.0 secs

     total energy              =     -28.90175440 Ry
     estimated scf accuracy    <       0.01197818 Ry

     iteration #  2     ecut=    60.00 Ry     beta= 0.50
     Davidson diagonalization with overlap
     ethr =  2.00E-04,  avg # of iterations =  2.0

     negative rho (up, down):  5.046E-03 0.000E+00

     total cpu time spent up to now is      184.8 secs

     total energy              =     -28.90310112 Ry
     estimated scf accuracy    <       0.00131649 Ry

     iteration #  3     ecut=    60.00 Ry     beta= 0.50
     Davidson diagonalization with overlap
     ethr =  2.19E-05,  avg # of iterations =  1.0

     negative rho (up, down):  5.261E-03 0.000E+00

     total cpu time spent up to now is      186.5 secs

     total energy              =     -28.90312859 Ry
     estimated scf accuracy    <       0.00020305 Ry

     iteration #  4     ecut=    60.00 Ry     beta= 0.50
     Davidson diagonalization with overlap
     ethr =  3.38E-06,  avg # of iterations =  2.0

     negative rho (up, down):  5.279E-03 0.000E+00

     total cpu time spent up to now is      188.3 secs

     total energy              =     -28.90313365 Ry
     estimated scf accuracy    <       0.00000675 Ry

     iteration #  5     ecut=    60.00 Ry     beta= 0.50
     Davidson diagonalization with overlap
     ethr =  1.12E-07,  avg # of iterations =  2.0

     negative rho (up, down):  5.286E-03 0.000E+00

     total cpu time spent up to now is      190.1 secs

     total energy              =     -28.90313510 Ry
     estimated scf accuracy    <       0.00000229 Ry

     iteration #  6     ecut=    60.00 Ry     beta= 0.50
     Davidson diagonalization with overlap
     ethr =  3.82E-08,  avg # of iterations =  1.0

     negative rho (up, down):  5.289E-03 0.000E+00

     total cpu time spent up to now is      191.8 secs

     total energy              =     -28.90313504 Ry
     estimated scf accuracy    <       0.00000044 Ry

     iteration #  7     ecut=    60.00 Ry     beta= 0.50
     Davidson diagonalization with overlap
     ethr =  7.41E-09,  avg # of iterations =  2.0

     negative rho (up, down):  5.291E-03 0.000E+00

     total cpu time spent up to now is      193.7 secs

     total energy              =     -28.90313512 Ry
     estimated scf accuracy    <          2.8E-09 Ry

     iteration #  8     ecut=    60.00 Ry     beta= 0.50
     Davidson diagonalization with overlap
     ethr =  4.69E-11,  avg # of iterations =  2.0

     negative rho (up, down):  5.291E-03 0.000E+00

     total cpu time spent up to now is      195.6 secs

     total energy              =     -28.90313512 Ry
     estimated scf accuracy    <          1.9E-09 Ry

     iteration #  9     ecut=    60.00 Ry     beta= 0.50
     Davidson diagonalization with overlap
     ethr =  3.19E-11,  avg # of iterations =  2.0

     negative rho (up, down):  5.291E-03 0.000E+00

     total cpu time spent up to now is      197.3 secs

     End of self-consistent calculation

          k = 0.0000 0.0000 0.0000 ( 61161 PWs)   bands (ev):

   -21.7691  -9.6519  -6.7980  -6.7980  -0.5524   0.1078   0.4610

     the Fermi energy is    -6.7601 ev

!    total energy              =     -28.90313512 Ry
     estimated scf accuracy    <          7.8E-12 Ry
     smearing contrib. (-TS)   =      -0.01312732 Ry
     internal energy E=F+TS    =     -28.89000780 Ry

     The total energy is F=E-TS. E is the sum of the following terms:
     one-electron contribution =     -35.69458186 Ry
     hartree contribution      =      18.80615036 Ry
     xc contribution           =      -6.21139463 Ry
     ewald contribution        =       2.20852655 Ry
     Dispersion Correction     =      -0.00000253 Ry
     one-center paw contrib.   =      -7.99870570 Ry

     convergence has been achieved in   9 iterations

     negative rho (up, down):  5.291E-03 0.000E+00

     Forces acting on atoms (cartesian axes, Ry/au):

     atom    1 type  1   force =    -0.59233770    0.00000000   -0.00000000
     atom    2 type  2   force =     0.59233770   -0.00000000    0.00000000

     Total force =     0.592338     Total SCF correction =     0.000001
     Energy error            =      1.6E-01 Ry
     Gradient error          =      5.9E-01 Ry/Bohr

     number of scf cycles    =  10
     number of bfgs steps    =   9

     energy             old  =     -28.7397788257 Ry
     energy             new  =     -28.9031351191 Ry

     CASE: energy            _new < energy            _old

     new trust radius        =       0.1648275905 bohr
     new conv_thr            =            1.0E-10 Ry


ATOMIC_POSITIONS (angstrom)
H             0.0000000000        0.0000000000        0.0000000000    0   0   0
N             0.9280225828        0.0000000000        0.0000000000    1   0   0



     Writing config-only to output data dir ./pwscf.save/
     NEW-OLD atomic charge density approx. for the potential

     Check: negative core charge=   -0.000001

     negative rho (up, down):  5.032E-03 0.000E+00

     total cpu time spent up to now is      199.7 secs

     Self-consistent Calculation

     iteration #  1     ecut=    60.00 Ry     beta= 0.50
     Davidson diagonalization with overlap
     ethr =  1.00E-06,  avg # of iterations =  8.0

     negative rho (up, down):  4.876E-03 0.000E+00

     total cpu time spent up to now is      202.6 secs

     total energy              =     -28.96981374 Ry
     estimated scf accuracy    <       0.00741553 Ry

     iteration #  2     ecut=    60.00 Ry     beta= 0.50
     Davidson diagonalization with overlap
     ethr =  1.24E-04,  avg # of iterations =  2.0

     negative rho (up, down):  4.962E-03 0.000E+00

     total cpu time spent up to now is      204.5 secs

     total energy              =     -28.97070830 Ry
     estimated scf accuracy    <       0.00083078 Ry

     iteration #  3     ecut=    60.00 Ry     beta= 0.50
     Davidson diagonalization with overlap
     ethr =  1.38E-05,  avg # of iterations =  1.0

     negative rho (up, down):  5.059E-03 0.000E+00

     total cpu time spent up to now is      206.1 secs

     total energy              =     -28.97072457 Ry
     estimated scf accuracy    <       0.00014048 Ry

     iteration #  4     ecut=    60.00 Ry     beta= 0.50
     Davidson diagonalization with overlap
     ethr =  2.34E-06,  avg # of iterations =  2.0

     negative rho (up, down):  5.064E-03 0.000E+00

     total cpu time spent up to now is      207.9 secs

     total energy              =     -28.97072847 Ry
     estimated scf accuracy    <       0.00000572 Ry

     iteration #  5     ecut=    60.00 Ry     beta= 0.50
     Davidson diagonalization with overlap
     ethr =  9.54E-08,  avg # of iterations =  2.0

     negative rho (up, down):  5.069E-03 0.000E+00

     total cpu time spent up to now is      209.8 secs

     total energy              =     -28.97073003 Ry
     estimated scf accuracy    <       0.00000165 Ry

     iteration #  6     ecut=    60.00 Ry     beta= 0.50
     Davidson diagonalization with overlap
     ethr =  2.75E-08,  avg # of iterations =  1.0

     negative rho (up, down):  5.071E-03 0.000E+00

     total cpu time spent up to now is      211.5 secs

     total energy              =     -28.97072993 Ry
     estimated scf accuracy    <       0.00000050 Ry

     iteration #  7     ecut=    60.00 Ry     beta= 0.50
     Davidson diagonalization with overlap
     ethr =  8.27E-09,  avg # of iterations =  2.0

     negative rho (up, down):  5.072E-03 0.000E+00

     total cpu time spent up to now is      213.4 secs

     total energy              =     -28.97073002 Ry
     estimated scf accuracy    <          2.9E-09 Ry

     iteration #  8     ecut=    60.00 Ry     beta= 0.50
     Davidson diagonalization with overlap
     ethr =  4.81E-11,  avg # of iterations =  2.0

     negative rho (up, down):  5.072E-03 0.000E+00

     total cpu time spent up to now is      215.3 secs

     total energy              =     -28.97073002 Ry
     estimated scf accuracy    <          4.4E-10 Ry

     iteration #  9     ecut=    60.00 Ry     beta= 0.50
     Davidson diagonalization with overlap
     ethr =  7.41E-12,  avg # of iterations =  2.0

     negative rho (up, down):  5.072E-03 0.000E+00

     total cpu time spent up to now is      217.0 secs

     End of self-consistent calculation

          k = 0.0000 0.0000 0.0000 ( 61161 PWs)   bands (ev):

   -20.9463  -9.5781  -6.7296  -6.7296  -0.5867   0.0739   0.4548

     the Fermi energy is    -6.6917 ev

!    total energy              =     -28.97073002 Ry
     estimated scf accuracy    <          1.4E-11 Ry
     smearing contrib. (-TS)   =      -0.01312732 Ry
     internal energy E=F+TS    =     -28.95760270 Ry

     The total energy is F=E-TS. E is the sum of the following terms:
     one-electron contribution =     -34.85876693 Ry
     hartree contribution      =      18.40087666 Ry
     xc contribution           =      -6.11964539 Ry
     ewald contribution        =       1.61774055 Ry
     Dispersion Correction     =      -0.00000275 Ry
     one-center paw contrib.   =      -7.99780484 Ry

     convergence has been achieved in   9 iterations

     negative rho (up, down):  5.072E-03 0.000E+00

     Forces acting on atoms (cartesian axes, Ry/au):

     atom    1 type  1   force =    -0.25699807    0.00000000   -0.00000000
     atom    2 type  2   force =     0.25699807   -0.00000000    0.00000000

     Total force =     0.256998     Total SCF correction =     0.000001
     Energy error            =      6.8E-02 Ry
     Gradient error          =      2.6E-01 Ry/Bohr

     number of scf cycles    =  11
     number of bfgs steps    =  10

     energy             old  =     -28.9031351191 Ry
     energy             new  =     -28.9707300175 Ry

     CASE: energy            _new < energy            _old

     new trust radius        =       0.1263208127 bohr
     new conv_thr            =            1.0E-10 Ry


ATOMIC_POSITIONS (angstrom)
H             0.0000000000        0.0000000000        0.0000000000    0   0   0
N             0.9948686781        0.0000000000        0.0000000000    1   0   0



     Writing config-only to output data dir ./pwscf.save/
     NEW-OLD atomic charge density approx. for the potential

     Check: negative core charge=   -0.000001

     negative rho (up, down):  5.245E-03 0.000E+00

     total cpu time spent up to now is      219.5 secs

     Self-consistent Calculation

     iteration #  1     ecut=    60.00 Ry     beta= 0.50
     Davidson diagonalization with overlap
     ethr =  1.00E-06,  avg # of iterations =  7.0

     negative rho (up, down):  4.976E-03 0.000E+00

     total cpu time spent up to now is      222.3 secs

     total energy              =     -28.99184675 Ry
     estimated scf accuracy    <       0.00358064 Ry

     iteration #  2     ecut=    60.00 Ry     beta= 0.50
     Davidson diagonalization with overlap
     ethr =  5.97E-05,  avg # of iterations =  2.0

     negative rho (up, down):  4.943E-03 0.000E+00

     total cpu time spent up to now is      224.1 secs

     total energy              =     -28.99231182 Ry
     estimated scf accuracy    <       0.00041939 Ry

     iteration #  3     ecut=    60.00 Ry     beta= 0.50
     Davidson diagonalization with overlap
     ethr =  6.99E-06,  avg # of iterations =  1.0

     negative rho (up, down):  4.933E-03 0.000E+00

     total cpu time spent up to now is      225.8 secs

     total energy              =     -28.99232396 Ry
     estimated scf accuracy    <       0.00007378 Ry

     iteration #  4     ecut=    60.00 Ry     beta= 0.50
     Davidson diagonalization with overlap
     ethr =  1.23E-06,  avg # of iterations =  2.0

     negative rho (up, down):  4.931E-03 0.000E+00

     total cpu time spent up to now is      227.6 secs

     total energy              =     -28.99232616 Ry
     estimated scf accuracy    <       0.00000354 Ry

     iteration #  5     ecut=    60.00 Ry     beta= 0.50
     Davidson diagonalization with overlap
     ethr =  5.90E-08,  avg # of iterations =  2.0

     negative rho (up, down):  4.933E-03 0.000E+00

     total cpu time spent up to now is      229.4 secs

     total energy              =     -28.99232691 Ry
     estimated scf accuracy    <       0.00000125 Ry

     iteration #  6     ecut=    60.00 Ry     beta= 0.50
     Davidson diagonalization with overlap
     ethr =  2.08E-08,  avg # of iterations =  2.0

     negative rho (up, down):  4.934E-03 0.000E+00

     total cpu time spent up to now is      231.3 secs

     total energy              =     -28.99232708 Ry
     estimated scf accuracy    <       0.00000003 Ry

     iteration #  7     ecut=    60.00 Ry     beta= 0.50
     Davidson diagonalization with overlap
     ethr =  4.22E-10,  avg # of iterations =  2.0

     negative rho (up, down):  4.934E-03 0.000E+00

     total cpu time spent up to now is      233.4 secs

     total energy              =     -28.99232709 Ry
     estimated scf accuracy    <          2.5E-09 Ry

     iteration #  8     ecut=    60.00 Ry     beta= 0.50
     Davidson diagonalization with overlap
     ethr =  4.25E-11,  avg # of iterations =  1.0

     negative rho (up, down):  4.934E-03 0.000E+00

     total cpu time spent up to now is      235.4 secs

     total energy              =     -28.99232709 Ry
     estimated scf accuracy    <          2.5E-10 Ry

     iteration #  9     ecut=    60.00 Ry     beta= 0.50
     Davidson diagonalization with overlap
     ethr =  4.17E-12,  avg # of iterations =  2.0

     negative rho (up, down):  4.934E-03 0.000E+00

     total cpu time spent up to now is      237.4 secs

     End of self-consistent calculation

          k = 0.0000 0.0000 0.0000 ( 61161 PWs)   bands (ev):

   -20.4064  -9.5154  -6.6860  -6.6860  -0.6267   0.0372   0.4506

     the Fermi energy is    -6.6481 ev

!    total energy              =     -28.99232709 Ry
     estimated scf accuracy    <          3.6E-11 Ry
     smearing contrib. (-TS)   =      -0.01312732 Ry
     internal energy E=F+TS    =     -28.97919977 Ry

     The total energy is F=E-TS. E is the sum of the following terms:
     one-electron contribution =     -34.27694703 Ry
     hartree contribution      =      18.11833274 Ry
     xc contribution           =      -6.05796654 Ry
     ewald contribution        =       1.23523092 Ry
     Dispersion Correction     =      -0.00000302 Ry
     one-center paw contrib.   =      -7.99784684 Ry

     convergence has been achieved in   9 iterations

     negative rho (up, down):  4.934E-03 0.000E+00

     Forces acting on atoms (cartesian axes, Ry/au):

     atom    1 type  1   force =    -0.09570294    0.00000000   -0.00000000
     atom    2 type  2   force =     0.09570294   -0.00000000    0.00000000

     Total force =     0.095703     Total SCF correction =     0.000002
     Energy error            =      2.2E-02 Ry
     Gradient error          =      9.6E-02 Ry/Bohr

     number of scf cycles    =  12
     number of bfgs steps    =  11

     energy             old  =     -28.9707300175 Ry
     energy             new  =     -28.9923270856 Ry

     CASE: energy            _new < energy            _old

     new trust radius        =       0.0749512577 bohr
     new conv_thr            =            9.6E-11 Ry


ATOMIC_POSITIONS (angstrom)
H             0.0000000000        0.0000000000        0.0000000000    0   0   0
N             1.0345311756        0.0000000000        0.0000000000    1   0   0



     Writing config-only to output data dir ./pwscf.save/
     NEW-OLD atomic charge density approx. for the potential

     Check: negative core charge=   -0.000001

     negative rho (up, down):  5.239E-03 0.000E+00

     total cpu time spent up to now is      240.0 secs

     Self-consistent Calculation

     iteration #  1     ecut=    60.00 Ry     beta= 0.50
     Davidson diagonalization with overlap
     ethr =  1.00E-06,  avg # of iterations =  6.0

     negative rho (up, down):  4.992E-03 0.000E+00

     total cpu time spent up to now is      242.8 secs

     total energy              =     -28.99665540 Ry
     estimated scf accuracy    <       0.00111323 Ry

     iteration #  2     ecut=    60.00 Ry     beta= 0.50
     Davidson diagonalization with overlap
     ethr =  1.86E-05,  avg # of iterations =  2.0

     negative rho (up, down):  4.915E-03 0.000E+00

     total cpu time spent up to now is      244.6 secs

     total energy              =     -28.99680674 Ry
     estimated scf accuracy    <       0.00013386 Ry

     iteration #  3     ecut=    60.00 Ry     beta= 0.50
     Davidson diagonalization with overlap
     ethr =  2.23E-06,  avg # of iterations =  1.0

     negative rho (up, down):  4.853E-03 0.000E+00

     total cpu time spent up to now is      246.3 secs

     total energy              =     -28.99681122 Ry
     estimated scf accuracy    <       0.00002389 Ry

     iteration #  4     ecut=    60.00 Ry     beta= 0.50
     Davidson diagonalization with overlap
     ethr =  3.98E-07,  avg # of iterations =  2.0

     negative rho (up, down):  4.848E-03 0.000E+00

     total cpu time spent up to now is      248.1 secs

     total energy              =     -28.99681197 Ry
     estimated scf accuracy    <       0.00000153 Ry

     iteration #  5     ecut=    60.00 Ry     beta= 0.50
     Davidson diagonalization with overlap
     ethr =  2.55E-08,  avg # of iterations =  2.0

     negative rho (up, down):  4.847E-03 0.000E+00

     total cpu time spent up to now is      249.9 secs

     total energy              =     -28.99681236 Ry
     estimated scf accuracy    <       0.00000058 Ry

     iteration #  6     ecut=    60.00 Ry     beta= 0.50
     Davidson diagonalization with overlap
     ethr =  9.61E-09,  avg # of iterations =  2.0

     negative rho (up, down):  4.847E-03 0.000E+00

     total cpu time spent up to now is      251.7 secs

     total energy              =     -28.99681240 Ry
     estimated scf accuracy    <       0.00000004 Ry

     iteration #  7     ecut=    60.00 Ry     beta= 0.50
     Davidson diagonalization with overlap
     ethr =  6.30E-10,  avg # of iterations =  2.0

     negative rho (up, down):  4.847E-03 0.000E+00

     total cpu time spent up to now is      253.6 secs

     total energy              =     -28.99681241 Ry
     estimated scf accuracy    <          1.4E-09 Ry

     iteration #  8     ecut=    60.00 Ry     beta= 0.50
     Davidson diagonalization with overlap
     ethr =  2.28E-11,  avg # of iterations =  2.0

     negative rho (up, down):  4.847E-03 0.000E+00

     total cpu time spent up to now is      255.5 secs

     total energy              =     -28.99681241 Ry
     estimated scf accuracy    <          1.2E-10 Ry

     iteration #  9     ecut=    60.00 Ry     beta= 0.50
     Davidson diagonalization with overlap
     ethr =  2.07E-12,  avg # of iterations =  2.0

     negative rho (up, down):  4.847E-03 0.000E+00

     total cpu time spent up to now is      257.3 secs

     End of self-consistent calculation

          k = 0.0000 0.0000 0.0000 ( 61161 PWs)   bands (ev):

   -20.1227  -9.4745  -6.6640  -6.6640  -0.6600   0.0098   0.4480

     the Fermi energy is    -6.6260 ev

!    total energy              =     -28.99681241 Ry
     estimated scf accuracy    <          8.6E-12 Ry
     smearing contrib. (-TS)   =      -0.01312732 Ry
     internal energy E=F+TS    =     -28.98368509 Ry

     The total energy is F=E-TS. E is the sum of the following terms:
     one-electron contribution =     -33.95382159 Ry
     hartree contribution      =      17.96103802 Ry
     xc contribution           =      -6.02453552 Ry
     ewald contribution        =       1.03169815 Ry
     Dispersion Correction     =      -0.00000322 Ry
     one-center paw contrib.   =      -7.99806092 Ry

     convergence has been achieved in   9 iterations

     negative rho (up, down):  4.847E-03 0.000E+00

     Forces acting on atoms (cartesian axes, Ry/au):

     atom    1 type  1   force =    -0.02679284   -0.00000000    0.00000000
     atom    2 type  2   force =     0.02679284    0.00000000   -0.00000000

     Total force =     0.026793     Total SCF correction =     0.000000
     Energy error            =      4.5E-03 Ry
     Gradient error          =      2.7E-02 Ry/Bohr

     number of scf cycles    =  13
     number of bfgs steps    =  12

     energy             old  =     -28.9923270856 Ry
     energy             new  =     -28.9968124099 Ry

     CASE: energy            _new < energy            _old

     new trust radius        =       0.0291416949 bohr
     new conv_thr            =            2.7E-11 Ry


ATOMIC_POSITIONS (angstrom)
H             0.0000000000        0.0000000000        0.0000000000    0   0   0
N             1.0499522964        0.0000000000        0.0000000000    1   0   0



     Writing config-only to output data dir ./pwscf.save/
     NEW-OLD atomic charge density approx. for the potential

     Check: negative core charge=   -0.000001

     negative rho (up, down):  5.019E-03 0.000E+00

     total cpu time spent up to now is      259.6 secs

     Self-consistent Calculation

     iteration #  1     ecut=    60.00 Ry     beta= 0.50
     Davidson diagonalization with overlap
     ethr =  1.00E-06,  avg # of iterations =  5.0

     negative rho (up, down):  4.902E-03 0.000E+00

     total cpu time spent up to now is      262.1 secs

     total energy              =     -28.99723621 Ry
     estimated scf accuracy    <       0.00015964 Ry

     iteration #  2     ecut=    60.00 Ry     beta= 0.50
     Davidson diagonalization with overlap
     ethr =  2.66E-06,  avg # of iterations =  2.0

     negative rho (up, down):  4.859E-03 0.000E+00

     total cpu time spent up to now is      263.9 secs

     total energy              =     -28.99725908 Ry
     estimated scf accuracy    <       0.00001967 Ry

     iteration #  3     ecut=    60.00 Ry     beta= 0.50
     Davidson diagonalization with overlap
     ethr =  3.28E-07,  avg # of iterations =  1.0

     negative rho (up, down):  4.821E-03 0.000E+00

     total cpu time spent up to now is      265.6 secs

     total energy              =     -28.99725988 Ry
     estimated scf accuracy    <       0.00000352 Ry

     iteration #  4     ecut=    60.00 Ry     beta= 0.50
     Davidson diagonalization with overlap
     ethr =  5.87E-08,  avg # of iterations =  2.0

     negative rho (up, down):  4.818E-03 0.000E+00

     total cpu time spent up to now is      267.4 secs

     total energy              =     -28.99726001 Ry
     estimated scf accuracy    <       0.00000027 Ry

     iteration #  5     ecut=    60.00 Ry     beta= 0.50
     Davidson diagonalization with overlap
     ethr =  4.51E-09,  avg # of iterations =  2.0

     negative rho (up, down):  4.816E-03 0.000E+00

     total cpu time spent up to now is      269.2 secs

     total energy              =     -28.99726008 Ry
     estimated scf accuracy    <       0.00000009 Ry

     iteration #  6     ecut=    60.00 Ry     beta= 0.50
     Davidson diagonalization with overlap
     ethr =  1.48E-09,  avg # of iterations =  1.0

     negative rho (up, down):  4.816E-03 0.000E+00

     total cpu time spent up to now is      271.0 secs

     total energy              =     -28.99726008 Ry
     estimated scf accuracy    <          8.8E-09 Ry

     iteration #  7     ecut=    60.00 Ry     beta= 0.50
     Davidson diagonalization with overlap
     ethr =  1.47E-10,  avg # of iterations =  2.0

     negative rho (up, down):  4.816E-03 0.000E+00

     total cpu time spent up to now is      272.8 secs

     total energy              =     -28.99726008 Ry
     estimated scf accuracy    <          5.2E-10 Ry

     iteration #  8     ecut=    60.00 Ry     beta= 0.50
     Davidson diagonalization with overlap
     ethr =  8.73E-12,  avg # of iterations =  2.0

     negative rho (up, down):  4.816E-03 0.000E+00

     total cpu time spent up to now is      274.7 secs

     total energy              =     -28.99726008 Ry
     estimated scf accuracy    <          1.6E-10 Ry

     iteration #  9     ecut=    60.00 Ry     beta= 0.50
     Davidson diagonalization with overlap
     ethr =  2.71E-12,  avg # of iterations =  2.0

     negative rho (up, down):  4.816E-03 0.000E+00

     total cpu time spent up to now is      276.6 secs

     total energy              =     -28.99726008 Ry
     estimated scf accuracy    <          2.4E-10 Ry

     iteration # 10     ecut=    60.00 Ry     beta= 0.50
     Davidson diagonalization with overlap
     ethr =  2.71E-12,  avg # of iterations =  2.0

     negative rho (up, down):  4.816E-03 0.000E+00

     total cpu time spent up to now is      278.4 secs

     End of self-consistent calculation

          k = 0.0000 0.0000 0.0000 ( 61161 PWs)   bands (ev):

   -20.0195  -9.4577  -6.6562  -6.6562  -0.6758  -0.0022   0.4470

     the Fermi energy is    -6.6183 ev

!    total energy              =     -28.99726008 Ry
     estimated scf accuracy    <          3.9E-13 Ry
     smearing contrib. (-TS)   =      -0.01312732 Ry
     internal energy E=F+TS    =     -28.98413276 Ry

     The total energy is F=E-TS. E is the sum of the following terms:
     one-electron contribution =     -33.83238109 Ry
     hartree contribution      =      17.90182797 Ry
     xc contribution           =      -6.01213119 Ry
     ewald contribution        =       0.95672683 Ry
     Dispersion Correction     =      -0.00000331 Ry
     one-center paw contrib.   =      -7.99817197 Ry

     convergence has been achieved in  10 iterations

     negative rho (up, down):  4.816E-03 0.000E+00

     Forces acting on atoms (cartesian axes, Ry/au):

     atom    1 type  1   force =    -0.00427295    0.00000000   -0.00000000
     atom    2 type  2   force =     0.00427295   -0.00000000    0.00000000

     Total force =     0.004273     Total SCF correction =     0.000001
     Energy error            =      4.5E-04 Ry
     Gradient error          =      4.3E-03 Ry/Bohr

     number of scf cycles    =  14
     number of bfgs steps    =  13

     energy             old  =     -28.9968124099 Ry
     energy             new  =     -28.9972600796 Ry

     CASE: energy            _new < energy            _old

     new trust radius        =       0.0055293751 bohr
     new conv_thr            =            4.3E-12 Ry


ATOMIC_POSITIONS (angstrom)
H             0.0000000000        0.0000000000        0.0000000000    0   0   0
N             1.0528783157        0.0000000000        0.0000000000    1   0   0



     Writing config-only to output data dir ./pwscf.save/
     NEW-OLD atomic charge density approx. for the potential

     Check: negative core charge=   -0.000001

     negative rho (up, down):  4.853E-03 0.000E+00

     total cpu time spent up to now is      280.8 secs

     Self-consistent Calculation

     iteration #  1     ecut=    60.00 Ry     beta= 0.50
     Davidson diagonalization with overlap
     ethr =  1.00E-06,  avg # of iterations =  3.0

     Threshold (ethr) on eigenvalues was too large:
     Diagonalizing with lowered threshold

     Davidson diagonalization with overlap
     ethr =  9.77E-08,  avg # of iterations =  1.0

     negative rho (up, down):  4.829E-03 0.000E+00

     total cpu time spent up to now is      283.6 secs

     total energy              =     -28.99727172 Ry
     estimated scf accuracy    <       0.00000574 Ry

     iteration #  2     ecut=    60.00 Ry     beta= 0.50
     Davidson diagonalization with overlap
     ethr =  9.57E-08,  avg # of iterations =  2.0

     negative rho (up, down):  4.820E-03 0.000E+00

     total cpu time spent up to now is      285.4 secs

     total energy              =     -28.99727262 Ry
     estimated scf accuracy    <       0.00000075 Ry

     iteration #  3     ecut=    60.00 Ry     beta= 0.50
     Davidson diagonalization with overlap
     ethr =  1.24E-08,  avg # of iterations =  1.0

     negative rho (up, down):  4.812E-03 0.000E+00

     total cpu time spent up to now is      287.1 secs

     total energy              =     -28.99727265 Ry
     estimated scf accuracy    <       0.00000014 Ry

     iteration #  4     ecut=    60.00 Ry     beta= 0.50
     Davidson diagonalization with overlap
     ethr =  2.29E-09,  avg # of iterations =  2.0

     negative rho (up, down):  4.811E-03 0.000E+00

     total cpu time spent up to now is      288.9 secs

     total energy              =     -28.99727265 Ry
     estimated scf accuracy    <       0.00000001 Ry

     iteration #  5     ecut=    60.00 Ry     beta= 0.50
     Davidson diagonalization with overlap
     ethr =  2.35E-10,  avg # of iterations =  2.0

     negative rho (up, down):  4.811E-03 0.000E+00

     total cpu time spent up to now is      290.8 secs

     total energy              =     -28.99727266 Ry
     estimated scf accuracy    <          1.4E-09 Ry

     iteration #  6     ecut=    60.00 Ry     beta= 0.50
     Davidson diagonalization with overlap
     ethr =  2.30E-11,  avg # of iterations =  1.0

     negative rho (up, down):  4.811E-03 0.000E+00

     total cpu time spent up to now is      292.5 secs

     total energy              =     -28.99727266 Ry
     estimated scf accuracy    <          4.2E-10 Ry

     iteration #  7     ecut=    60.00 Ry     beta= 0.50
     Davidson diagonalization with overlap
     ethr =  7.03E-12,  avg # of iterations =  1.0

     negative rho (up, down):  4.811E-03 0.000E+00

     total cpu time spent up to now is      294.2 secs

     total energy              =     -28.99727266 Ry
     estimated scf accuracy    <          6.0E-11 Ry

     iteration #  8     ecut=    60.00 Ry     beta= 0.50
     Davidson diagonalization with overlap
     ethr =  9.96E-13,  avg # of iterations =  2.0

     negative rho (up, down):  4.811E-03 0.000E+00

     total cpu time spent up to now is      296.1 secs

     total energy              =     -28.99727266 Ry
     estimated scf accuracy    <          1.4E-11 Ry

     iteration #  9     ecut=    60.00 Ry     beta= 0.50
     Davidson diagonalization with overlap
     ethr =  2.39E-13,  avg # of iterations =  1.0

     negative rho (up, down):  4.811E-03 0.000E+00

     total cpu time spent up to now is      297.8 secs

     End of self-consistent calculation

          k = 0.0000 0.0000 0.0000 ( 61161 PWs)   bands (ev):

   -20.0004  -9.4545  -6.6548  -6.6548  -0.6791  -0.0045   0.4468

     the Fermi energy is    -6.6169 ev

!    total energy              =     -28.99727266 Ry
     estimated scf accuracy    <          1.4E-12 Ry
     smearing contrib. (-TS)   =      -0.01312732 Ry
     internal energy E=F+TS    =     -28.98414535 Ry

     The total energy is F=E-TS. E is the sum of the following terms:
     one-electron contribution =     -33.80959168 Ry
     hartree contribution      =      17.89070643 Ry
     xc contribution           =      -6.00981263 Ry
     ewald contribution        =       0.94275037 Ry
     Dispersion Correction     =      -0.00000333 Ry
     one-center paw contrib.   =      -7.99819451 Ry

     convergence has been achieved in   9 iterations

     negative rho (up, down):  4.811E-03 0.000E+00

     Forces acting on atoms (cartesian axes, Ry/au):

     atom    1 type  1   force =    -0.00024385   -0.00000000   -0.00000000
     atom    2 type  2   force =     0.00024385    0.00000000    0.00000000

     Total force =     0.000244     Total SCF correction =     0.000002
     Energy error            =      1.3E-05 Ry
     Gradient error          =      2.4E-04 Ry/Bohr

     bfgs converged in  15 scf cycles and  14 bfgs steps
     (criteria: energy <  1.0E-04 Ry, force <  1.0E-03 Ry/Bohr)

     End of BFGS Geometry Optimization

     Final energy             =     -28.9972726609 Ry

     File ./pwscf.bfgs deleted, as requested
Begin final coordinates

ATOMIC_POSITIONS (angstrom)
H             0.0000000000        0.0000000000        0.0000000000    0   0   0
N             1.0528783157        0.0000000000        0.0000000000    1   0   0
End final coordinates



     Writing all to output data dir ./pwscf.save/

     init_run     :      2.66s CPU      2.50s WALL (       1 calls)
     electrons    :    494.75s CPU    263.62s WALL (      15 calls)
     update_pot   :     10.52s CPU     11.51s WALL (      14 calls)
     forces       :     22.31s CPU     15.97s WALL (      15 calls)
     force_london :      0.01s CPU      0.01s WALL (      15 calls)

     Called by init_run:
     wfcinit      :      0.74s CPU      0.54s WALL (       1 calls)
     potinit      :      0.59s CPU      0.63s WALL (       1 calls)
     hinit0       :      0.89s CPU      0.93s WALL (       1 calls)

     Called by electrons:
     c_bands      :    207.92s CPU     89.72s WALL (     140 calls)
     sum_band     :    163.47s CPU     59.90s WALL (     140 calls)
     v_of_rho     :     66.63s CPU     72.01s WALL (     154 calls)
     newd         :     45.71s CPU     35.12s WALL (     154 calls)
     PAW_pot      :      3.81s CPU      3.30s WALL (     168 calls)
     mix_rho      :     11.91s CPU     11.45s WALL (     140 calls)
     energy_londo :      0.08s CPU      0.02s WALL (      15 calls)

     Called by c_bands:
     init_us_2    :     12.75s CPU      3.25s WALL (     295 calls)
     init_us_2:cp :     12.74s CPU      3.25s WALL (     295 calls)
     regterg      :    195.23s CPU     86.46s WALL (     140 calls)

     Called by *egterg:
     rdiaghg      :      0.25s CPU      0.05s WALL (     440 calls)
     h_psi        :    163.92s CPU     80.80s WALL (     456 calls)
     s_psi        :      1.55s CPU      0.27s WALL (     456 calls)
     g_psi        :      2.70s CPU      0.62s WALL (     315 calls)

     Called by h_psi:
     h_psi:calbec :      2.04s CPU      0.61s WALL (     456 calls)
     vloc_psi     :    158.20s CPU     79.50s WALL (     456 calls)
     add_vuspsi   :      2.05s CPU      0.32s WALL (     456 calls)

     General routines
     calbec       :      3.29s CPU      0.97s WALL (     670 calls)
     fft          :     50.77s CPU     47.47s WALL (    1536 calls)
     ffts         :     12.68s CPU      4.70s WALL (     140 calls)
     fftw         :    178.34s CPU     86.10s WALL (    3518 calls)

     Parallel routines

     PWSCF        :   8m57.54s CPU   4m59.11s WALL


   This run was terminated on:  15:10:57   5Sep2022            

=------------------------------------------------------------------------------=
   JOB DONE.
=------------------------------------------------------------------------------=
