9
Properties=species:S:1:pos:R:3:forces:R:3 energy=-4209.616150273431 pbc="F F F"
C       -0.49546875       0.27210288      -0.01469131       0.70304783      -0.01238964      -1.89386649
C        0.85662861       0.96446126       0.21627804      -0.51338659       1.01829830      -0.52169089
O       -0.35646178      -1.12264700      -0.21778878       0.81652839      -1.49777850       3.25948890
H       -1.23408300       0.58155350       0.74547937      -0.53242453      -0.03612381      -0.03362222
H       -0.76368725       0.49968754      -1.07992502      -0.66863514       0.81451054       0.63732177
H        0.99332842       1.28788394       1.28731845       0.55939372      -0.88668317      -0.36359900
H        1.55545670       0.21019439      -0.29247732       0.03856553       1.29839406       0.86845214
H        0.81274266       2.00304220      -0.29702146       0.40676928      -1.32233562       0.19465793
H       -0.01011057      -1.49868055       0.69154205      -0.80985848       0.62410789      -2.14714209
9
Properties=species:S:1:pos:R:3:forces:R:3 energy=-4209.775000239667 pbc="F F F"
C        0.16378709      -0.56839745      -0.00499789       1.43158862       2.56874401      -2.47890748
C       -0.88511811       0.09190140      -0.93165844       0.64524710       0.11353738       0.29564724
O        0.65756819       0.45659544       0.82453285       1.58052100      -0.40225601       2.47006016
H       -0.41280493      -1.25110870       0.51683351      -1.13448793      -2.46772282       1.62781353
H        0.97233265      -1.06993400      -0.67267396      -0.73170345       0.29176822       0.90224062
H       -0.53369652       0.87627923      -1.64577086       0.18494625      -0.23657947       0.37139371
H       -1.30224844      -0.72620728      -1.49516751      -0.58021894      -0.68511700      -0.87116399
H       -1.70171352       0.50046496      -0.31748355      -0.10992071       0.25885361       0.15513270
H        1.13476404       0.09926730       1.68742872      -1.28597198       0.55877207      -2.47221654
9
Properties=species:S:1:pos:R:3:forces:R:3 energy=-4209.555126454199 pbc="F F F"
C        0.01613044       0.07400949       0.50402265      -0.05611347      -3.08095288       0.93954430
C       -1.15136412       0.53154588      -0.25845865      -1.76046059       4.11946170      -1.31227890
O        1.04123295      -0.56981814      -0.27140423      -0.91718079       0.41856154       0.08322088
H        0.40108953       0.90016010       1.05639884       0.74896204       1.22766505       0.93088626
H       -0.49547801      -0.62742092       1.31171096       1.30403944       0.46843870      -0.88274404
H       -2.06193885       0.45481362       0.34067901      -0.40235757      -0.28921413       0.48491238
H       -1.17695273       1.73724764      -0.43641446       0.44441569      -2.32099819      -0.02689066
H       -1.45160896       0.10010626      -1.22006637       0.53301203      -0.53789234      -0.35918879
H        1.78357126      -0.73732529       0.32962862       0.10568323      -0.00506945       0.14253861
9
Properties=species:S:1:pos:R:3:forces:R:3 energy=-4209.712626093254 pbc="F F F"
C       -0.34585432       0.28401429      -0.27893239      -1.36390235      -2.15152047      -0.74435272
C       -0.60942685       0.03737455       1.20873696       3.04376818      -1.31768886       0.87743898
O        0.91140351      -0.23399711      -0.85525517      -1.03578098       3.14685064       1.89610330
H       -1.28707597      -0.20820148      -0.78314003       1.39371235       0.27047284       0.23578058
H       -0.54488419       1.31441151      -0.54462534       0.61209507       1.12322860      -0.14096582
H       -1.58873431       0.26885325       1.55234652      -1.68994148       0.26610454       0.05564352
H       -0.34943867      -1.03751786       1.54033704      -0.57771355       0.88435149      -0.71200586
H        0.05286052       0.59952450       1.91535832       0.08649086       0.24848800      -0.46866881
H        0.63245530      -1.05394570      -1.18413004      -0.46872810      -2.47028682      -0.99897311
9
Properties=species:S:1:pos:R:3:forces:R:3 energy=-4209.638860969808 pbc="F F F"
C        0.55636676      -0.10981070      -0.04559138      -2.20567610      -1.94309110       0.15846115
C        0.11382536       1.32354087      -0.30962143      -0.46854185      -1.85646854       2.22424158
O       -0.59419828      -1.09758337       0.36314912       2.72513126       2.40486997       1.44527352
H        0.98719280      -0.63509563      -0.91061848       0.40358625       0.29340066      -0.45231258
H        1.29057995      -0.14687357       0.75538307       0.31068136      -0.17424789       0.63510764
H       -0.15911358       1.77051050       0.67470401      -0.86111761      -0.15309161      -0.32585278
H        0.96690163       1.89670915      -0.50685354       1.91983150       1.24298281      -1.25070497
H       -0.63587333       1.32528666      -1.07906018      -0.82755344       0.57990855      -0.64850597
H       -1.00481719      -1.25260866      -0.46520715      -0.99634143      -0.39426286      -1.78570770
9
Properties=species:S:1:pos:R:3:forces:R:3 energy=-4209.67699525944 pbc="F F F"
C       -0.12396652      -0.21314370      -0.47462252      -1.26270611       0.84214934       1.24403172
C       -0.11119714       1.33333643      -0.25480444       2.07696756      -0.95613800      -0.94446334
O        0.17054817      -1.04157556       0.71176585      -0.07652588       1.23375476      -1.87293837
H       -1.14604584      -0.52725193      -0.80331480       0.06876834       0.33759321       0.02898627
H        0.50246442      -0.37879694      -1.36312560       0.65430047      -0.62556925       0.01650345
H       -0.18991496       1.79896931      -1.22994568      -0.27620635       0.23130418      -1.08359184
H       -0.92386531       1.71524687       0.27068734      -2.04180288       0.63730568       1.65502964
H        0.80915467       1.85984655       0.12599229      -0.13005817      -0.93856008       0.22512895
H        1.04227475      -1.28451783       0.39350141       0.98726302      -0.76183988       0.73131352
9
Properties=species:S:1:pos:R:3:forces:R:3 energy=-4209.699725955892 pbc="F F F"
C       -0.22085450      -0.17451419      -0.53226484       1.75066592      -2.02445985      -0.87473752
C       -0.20615082       1.24357171      -0.11956307      -0.00839579       1.49693245       1.01502328
O        0.37013079      -0.93958834       0.62260107      -0.09169267      -1.31332050      -3.13106200
H       -1.20897326      -0.58768281      -0.88527819      -0.15266126       0.40642259       0.85499617
H        0.36796830      -0.40065198      -1.49819291       0.05597669       0.43707236       0.92627375
H       -0.72069296       1.18344986       0.86869048       0.02164206       0.64818366      -0.04793433
H        0.78275700       1.77722225       0.05186752      -0.31758267      -1.10629130      -0.07106146
H       -0.71802949       1.97823498      -0.76380858      -0.56381519      -0.27737600      -0.25661115
H        0.70899230      -1.77662495       0.11118487      -0.69413705       1.73283654       1.58511330
9
Properties=species:S:1:pos:R:3:forces:R:3 energy=-4209.525889149954 pbc="F F F"
C       -0.15085455      -0.21529046       0.50319442       1.48534819      -2.04734505      -1.97513111
C       -1.06461023       0.69807199      -0.25242388      -2.58460557       1.82774628       0.76489939
O        1.08092873      -0.44561553      -0.24762076       1.58157340       0.44040472       0.41140704
H        0.12541452       0.20861288       1.45420408      -0.20389529      -0.10064998       1.32287462
H       -0.56235065      -1.27476427       0.42539023      -0.41881048       0.89531334       1.39441791
H       -1.61256181       1.49862115       0.44358253       0.94955484      -1.47828213      -0.92462110
H       -0.59270459       1.34155331      -1.00968708       0.47641956      -0.16589617      -0.22503521
H       -1.91802502       0.13992610      -0.72831025       0.50419237       0.29717993       0.00477979
H        1.88484477      -0.59489758       0.35719185      -1.78977709       0.33152900      -0.77359136
9
Properties=species:S:1:pos:R:3:forces:R:3 energy=-4209.562891619376 pbc="F F F"
C       -0.07011872      -0.52980398       0.30061777       0.46308648       0.01043081      -1.46366463
C       -1.02142208       0.63698824       0.30250846      -1.33145620      -0.78073708       2.31372757
O        0.99620196      -0.04711672      -0.54107824       1.06815838      -1.42652066       0.70069537
H        0.13040423      -0.97485924       1.38153158       0.38340350       0.84547753      -1.61631817
H       -0.59066176      -1.30520394      -0.31341584       0.01838771      -0.50370036       0.64427362
H       -1.48408344       0.42618975       1.31365524      -0.47062259       1.13390161      -0.49857708
H       -0.59237988       1.65151129       0.23982095       0.29918441      -0.11640031       0.18815828
H       -1.81712928       0.50986534      -0.43879816      -0.15301715       0.16608391      -0.40427906
H        1.54667748      -0.83831944      -0.78096538      -0.27712455       0.67146454       0.13598410
9
Properties=species:S:1:pos:R:3:forces:R:3 energy=-4209.687729837722 pbc="F F F"
C       -0.13185866       0.10273930      -0.53409286      -1.36403635      -0.39569759       1.84223491
C        0.84472670       0.98618329       0.24504105       1.44558483      -2.38202278      -1.99969380
O       -0.60832919      -1.01514453       0.26361141       2.61212605      -0.09239540      -0.96129445
H       -1.01960571       0.66152643      -0.94987206       0.54799951       0.06685580       0.14839636
H        0.39906814      -0.31081492      -1.35477353       0.71546323      -0.85342918      -1.47974035
H        0.31488262       1.72600703       0.70407020      -1.67904807       2.25073933       2.73677281
H        1.59906646       0.37765483       0.84738641      -0.90493493       0.71901685      -0.37240200
H        1.36295119       1.58703297      -0.50962207       0.76212840       0.05502492      -0.42714014
H       -1.49571731      -0.90484198       0.52277699      -2.13528261       0.63190805       0.51286661
9
Properties=species:S:1:pos:R:3:forces:R:3 energy=-4209.661454030516 pbc="F F F"
C        0.08805486       0.56084844       0.23033775      -0.12939282      -1.33283210      -2.42648071
C       -1.28315918      -0.21076881       0.39874002       1.71837167       3.06592863      -1.36501065
O        1.03553515      -0.33958771      -0.58673384      -1.19336138       1.66247453       1.56996893
H       -0.11214281       1.51300903      -0.30953070       0.19704422       0.02404733      -0.29329242
H        0.61331242       0.86635323       1.13797514      -0.08580134      -0.23944219       0.85479562
H       -1.92657351       0.39469360       1.03612076      -0.46243790      -0.11982738       0.55885635
H       -1.76718685      -0.38192661      -0.57815993       0.07274923       0.10851267      -0.12586603
H       -0.91682610      -1.10225414       0.76061926       0.15637702      -2.94491232       1.53956660
H        1.91196593      -0.07255448      -0.22972880      -0.27354865      -0.22394918      -0.31253770
9
Properties=species:S:1:pos:R:3:forces:R:3 energy=-4209.6245790142 pbc="F F F"
C        0.54985097       0.14054359      -0.18269280      -2.73173946      -0.03331709       1.09886791
C       -0.81737282       1.06305432      -0.37675507       2.22845644       0.25963950      -0.17515261
O        0.31404909      -1.09097332       0.51650153       0.17548217      -0.01627972       0.43867884
H        0.86946003      -0.07425234      -1.19601011       0.70850741      -0.06659848      -0.85604307
H        1.36337199       0.63743334       0.43769681      -0.67793411       0.01247654      -0.78179216
H       -0.82224600       1.52658997      -1.43648839      -0.02931012      -0.31668515       1.43872502
H       -1.76836188       0.55465776      -0.20912131      -0.29161338      -0.94557071      -0.24963841
H       -0.85916934       1.82079148       0.43736305       0.22221476       0.34747725      -0.40946570
H       -0.58124648      -1.49147872       0.43437157       0.39593629       0.75885796      -0.50417992
9
Properties=species:S:1:pos:R:3:forces:R:3 energy=-4209.10383061763 pbc="F F F"
C       -0.09856161       0.35199819       0.42364008       5.57270878       1.37104811      -1.55090522
C       -1.22936108      -0.10262742      -0.24539719      -6.02540513       0.38924150      -2.85221409
O        1.22643680      -0.20850429      -0.19521693      -3.27021169       2.68779791      -0.77707742
H        0.01485887       1.45770754       0.36124004      -0.02928405      -0.04142815      -0.26350762
H       -0.22975597       0.21552034       1.43544920       0.56211266      -1.09714403       3.36122199
H       -1.36882212      -1.16166420      -0.50869516       0.71135224      -0.36717361      -0.09330984
H       -2.20217104       0.04135242       0.41378464       1.40513715       0.22542360      -0.94979591
H       -1.39599714       0.54559054      -1.20050729      -0.06738031      -1.22540299       0.96764894
H        1.53685999      -0.76186548       0.47352067       1.14097030      -1.94236234       2.15793918
9
Properties=species:S:1:pos:R:3:forces:R:3 energy=-4209.65153588342 pbc="F F F"
C        0.27399457       0.28558326       0.38508452      -0.02420962       0.18117593      -2.45449330
C       -0.55778226       0.97036272      -0.80894669       0.62902801      -4.44742829       1.07717617
O        0.24815073      -1.12275767       0.34212659      -0.07131327      -1.07834494       0.82879009
H        1.34728876       0.55376432       0.24484454      -0.11894092       0.83336367       0.60150254
H       -0.25327271       0.58972526       1.26059524       0.07559694       1.02673599       1.70672745
H       -0.48770945       0.17594028      -1.63352974       0.01254473       1.32772825       0.27957882
H       -1.59585461       1.01459837      -0.49469223      -0.76647506       0.14884671       0.02632553
H       -0.17435118       1.93087334      -0.99278744       0.76853364       1.76127553      -0.78772868
H        0.60556147      -1.41041950       1.23564746      -0.50476444       0.24664714      -1.27787861
9
Properties=species:S:1:pos:R:3:forces:R:3 energy=-4209.948537699898 pbc="F F F"
C       -0.23380333      -0.24170992      -0.44561337       2.11781680       0.87917488      -1.31117672
C       -0.03557191       1.29582378      -0.27104284      -2.20410572      -0.13004896       0.26907113
O        0.25744456      -1.00917290       0.60463356       0.13788281      -0.62300149       0.80584828
H       -1.28671394      -0.39267305      -0.70802137      -0.66066755      -0.43762186      -0.10008840
H        0.43421123      -0.62793351      -1.29964780      -0.99809425       0.59509668       0.33116766
H       -0.03093877       1.90338700      -1.21801428      -0.23239875      -0.45073094       0.36895790
H       -0.88931445       1.66453785       0.41569283       0.77648298      -0.12623103      -0.88576544
H        0.84944686       1.54771552       0.27518930       1.40833550       0.03671459       0.50798629
H        0.04570694      -0.63847533       1.47696910      -0.34525186       0.25664807       0.01399930
9
Properties=species:S:1:pos:R:3:forces:R:3 energy=-4209.611309924797 pbc="F F F"
C        0.50813091       0.11238319      -0.25301898      -0.61922475      -0.97484026       0.99696045
C       -0.71630894       0.95920588      -0.41669601       2.79970603       1.10577291      -3.22377447
O        0.22982846      -1.02984069       0.59474195       0.08455364       0.75866029      -0.33815032
H        0.65973664      -0.31818111      -1.23452839       1.24734597      -0.09845668      -0.75112773
H        1.30579750       0.73767215       0.22067154       0.36860643      -0.22138630      -0.67397625
H       -0.39482969       1.79006458      -1.13063127      -0.26008450      -0.31129580       0.52881938
H       -1.46012473       0.47360299      -0.98577680      -1.80197302      -1.02004716      -0.26909884
H       -0.93533730       1.45380821       0.45429177      -1.49127752       1.32331541       2.85335073
H       -0.34371538      -0.56057724       1.21579831      -0.32765229      -0.56172247       0.87699705
9
Properties=species:S:1:pos:R:3:forces:R:3 energy=-4209.538255432028 pbc="F F F"
C       -0.32665212      -0.54038395      -0.04693924       2.06643791       2.03185291       1.48779187
C       -0.90252741       0.86278838       0.50131738       2.46716175      -1.26701466      -0.07370625
O        1.08236858      -0.24521476      -0.39681796      -1.26385822      -0.31944805       0.02019242
H       -0.25653273      -1.45846826       0.57087463      -0.58905150       0.37351503       1.10635069
H       -0.85942568      -0.90425443      -0.86670645      -1.43699590      -0.38531491      -2.49154548
H       -2.00421868       0.96104657       0.58790561       0.15612268      -0.27695280       0.14686049
H       -0.32854053       0.96235868       1.52241707      -1.14224397       0.51645828      -1.54852304
H       -0.51473734       1.61695367      -0.30225327      -0.48917527      -0.86739516       1.38977763
H        1.42864316      -1.12855184      -0.62781023       0.23160248       0.19429936      -0.03719832
9
Properties=species:S:1:pos:R:3:forces:R:3 energy=-4209.722504926634 pbc="F F F"
C       -0.34084021       0.11874735       0.39973824      -1.73886321       1.12660441      -2.70346236
C        0.03819856       1.10141007      -0.86414151       1.41667436      -1.22299155       2.60399915
O        0.29270099      -1.10296682       0.46525633       1.00523981       0.41431238       1.38858351
H       -0.01957016       0.60469971       1.28944959      -0.02583949       1.12561448       1.36243512
H       -1.49754505       0.04713852       0.32681705       1.00109982      -0.08169483       0.56102775
H        1.19618570       1.21368920      -0.68678826      -1.70559673       0.18668678      -0.98352031
H       -0.23614112       0.61690487      -1.83450996       0.21707379       0.37099077       0.24471799
H       -0.50993027       2.06306953      -0.65836200       0.40604222      -0.39350259      -0.47068003
H        0.02616593      -1.57870771      -0.28792075      -0.57583058      -1.52601987      -2.00310077
9
Properties=species:S:1:pos:R:3:forces:R:3 energy=-4209.7087900190445 pbc="F F F"
C       -0.15236173      -0.16702297      -0.58972780       3.33865263       1.67823673       2.03632941
C       -0.14895577       1.29032820       0.04412658       1.09564662      -1.92049649      -0.31397330
O        0.30105943      -1.04419903       0.42648785      -1.11853263      -0.11121969       1.31257334
H       -1.06416895      -0.40873739      -0.99997915      -3.28447479      -0.72779095      -1.00207725
H        0.57365217      -0.44188173      -1.34666445       0.64564865       0.82760059      -1.10073216
H       -0.83221515       1.16807056       0.87426612      -0.76908304       0.23768499       0.79949056
H        0.83262310       1.53044572       0.50222643       0.10408935      -0.26355503      -0.14189671
H       -0.43622259       2.15806273      -0.51443236      -0.58029324       0.75201214      -1.07249054
H       -0.26295874      -0.81790933       1.21621706       0.56834645      -0.47247230      -0.51722334
9
Properties=species:S:1:pos:R:3:forces:R:3 energy=-4209.59310652318 pbc="F F F"
C       -0.11205458      -0.24332424       0.54185203       1.75557549       1.81777873       0.71189500
C       -1.04273954       0.76730114      -0.21032460      -2.00924720      -2.74166218       2.04542721
O        1.00822765      -0.48225790      -0.31132522       1.43418636       0.02755843      -0.53172067
H        0.39526460       0.13262223       1.51818958      -1.51791786      -0.32667481      -0.65347478
H       -0.56662069      -1.22050399       0.67192555      -0.84764507      -0.52159766       0.54518729
H       -2.17007534       0.79987332       0.06278679       1.43783902      -0.07500666       0.44878482
H       -0.67730894       1.74505668      -0.25263839       1.00189903       2.06769076      -0.28712105
H       -1.11320389       0.26997357      -1.14613112       0.19027445      -0.14579569      -1.95661428
H        1.88761552      -0.31722010       0.13713712      -1.44496427      -0.10229091      -0.32236353
9
Properties=species:S:1:pos:R:3:forces:R:3 energy=-4209.587313495479 pbc="F F F"
C       -0.29961133      -0.45495267      -0.01047614      -1.74158102      -1.44242381      -0.05690547
C       -0.88210950       0.91635279       0.30278135      -1.05349753       0.61952171      -3.37794141
O        1.07775474      -0.43862536      -0.31434615      -1.81890631      -0.90263148      -2.61315192
H       -0.58415978      -1.17685174       0.86584048       0.61673741       0.79856172      -0.70258416
H       -0.96529329      -0.93265779      -0.85787966       1.58038391       0.67797406       0.71332103
H       -2.00892287       0.78293744       0.53357800       1.29932856       0.58965798      -0.40519268
H       -0.37388374       1.30217245       1.13968980       0.76843825       1.00673357       1.83345454
H       -0.63121320       1.71727086      -0.63635553      -0.96531175      -1.99397263       2.24785691
H        1.53637631      -0.22999446       0.46172411       1.31440849       0.64657888       2.36114315
9
Properties=species:S:1:pos:R:3:forces:R:3 energy=-4209.821811649 pbc="F F F"
C       -0.32566584      -0.02149746      -0.47837140      -1.36619629       1.32754447       2.75612078
C        0.32606136       1.30273075       0.14163216       0.92806787      -1.20595701      -4.13103090
O       -0.02623792      -1.16137368       0.34674589      -0.55628052       1.28649669       0.15845184
H       -1.47284156       0.17285655      -0.37031986       1.24150797      -0.40759167      -0.59679875
H       -0.05960923      -0.10370965      -1.54310125       0.16036418      -0.22382936      -0.22102743
H        1.43258968       1.14483424       0.16901707      -0.24087866       0.16846671       0.19292264
H        0.13556471       2.11208275      -0.63743095       0.21003611      -0.41471713       0.60891611
H       -0.02326233       1.67748949       1.05561992      -0.94200397       0.22999719       2.06560868
H        0.39834059      -1.83743105      -0.16519548       0.56538331      -0.76040988      -0.83316297
9
Properties=species:S:1:pos:R:3:forces:R:3 energy=-4209.86153510658 pbc="F F F"
C       -0.49703128       0.03187123      -0.30855340       2.18056608       0.67363322      -1.88624152
C        0.44527545       1.20498147       0.03746322      -0.44297778       0.56466576       1.24427325
O        0.07551878      -1.12054064       0.26312643      -1.52500963      -0.96633114       0.52927040
H       -1.56021152       0.21718061      -0.10984360      -0.44376057       0.18889161       0.70969531
H       -0.46603713      -0.12994260      -1.42595057      -0.12376811       0.39061765       0.03628990
H        1.54036707       0.97492933      -0.01889118      -0.51939052      -0.53749645       0.33912425
H        0.40331804       2.10327644      -0.57338428      -0.64061191       0.37861116      -0.99061460
H        0.16582499       1.64898961       1.04525936       0.57345107      -0.67439699      -0.33470185
H       -0.66626083      -1.76762591       0.13644230       0.94150137      -0.01819483       0.35290491
9
Properties=species:S:1:pos:R:3:forces:R:3 energy=-4209.265519184348 pbc="F F F"
C        0.47357555       0.20177718      -0.03243481       0.38654672       1.32026866      -0.49540403
C       -0.76766880       0.94568545      -0.41804322       2.41834677       3.42906885       3.87175146
O        0.30550222      -1.07246933       0.41996539       2.58210347      -0.85437885       1.89863218
H        1.05244240       0.11775223      -0.92844795       1.35920062       0.24735389      -1.30857193
H        1.07852201       0.87907174       0.67900111      -0.54581016      -0.99972557      -0.26775395
H       -1.16333900       0.80798724      -1.33635418      -2.35816365      -1.72159943      -3.30707485
H       -1.31656751       0.98550051       0.53077596      -1.38166683      -0.14635393      -0.30944301
H       -0.48163437       2.05175798      -0.57390882       0.01546025      -0.84356494       0.43430339
H       -0.51532042      -1.49313596       0.33060484      -2.47601715      -0.43106863      -0.51643926
9
Properties=species:S:1:pos:R:3:forces:R:3 energy=-4209.631716806012 pbc="F F F"
C       -0.31239392      -0.48633984      -0.11945614       1.20159261      -0.24439064       0.26557335
C       -0.97282497       0.79029041       0.49816080       0.08638287      -1.02743415       0.49368566
O        1.16193281      -0.26754267      -0.32658867      -2.48077122      -0.08294937       3.85150330
H       -0.36275233      -1.24488531       0.72268510      -0.08797187       0.26204569      -0.63371302
H       -0.77841411      -1.00671926      -1.04710590       0.37345111       0.97418566       0.97519924
H       -1.90287153       0.42571236       1.08093936       0.78848099       0.85118564      -0.87417871
H       -0.20286879       1.04337637       1.27155510      -0.40690056       0.22599357      -0.08439479
H       -1.11788857       1.72138097      -0.12814125      -0.14768494      -0.87082846       0.14891814
H        1.23480106      -0.31546396      -1.22854844       0.67342100      -0.08780793      -4.14259315
9
Properties=species:S:1:pos:R:3:forces:R:3 energy=-4209.909886712332 pbc="F F F"
C       -0.25224495       0.50508407      -0.08392353       0.82909368       0.59906271       2.38089278
C       -0.98066260      -0.76589849       0.39150343      -1.83337355       0.76348764      -0.15759793
O        1.13257993       0.27362927      -0.32824326      -0.30839904       0.19551236      -0.34716368
H       -0.66540119       1.00687081      -0.94057120      -0.43027009      -0.14544489      -1.41620853
H       -0.39815014       1.36709933       0.68137589       0.19534230      -0.93606807      -0.25328301
H       -0.43204267      -1.65279602       0.08762237       0.52414974      -0.59182315      -0.02338162
H       -1.28464046      -0.80326439       1.48201825       0.63506650       0.06536651      -0.61584153
H       -1.96383285      -0.86039678      -0.15416924       0.35681967       0.04558542       0.24536642
H        1.45665592      -0.29454347       0.38890054       0.03157074       0.00432141       0.18721720
9
Properties=species:S:1:pos:R:3:forces:R:3 energy=-4209.683517331359 pbc="F F F"
C       -0.27492823       0.27676597       0.43687247       0.65442378      -0.93506888       0.50464874
C       -0.90107145      -0.01178519      -0.92372145      -0.56734593       0.00005836       0.89915807
O        1.06904196      -0.18733611       0.42095325       0.13279043       2.46503930      -2.40374285
H       -0.14863208       1.38613445       0.71123100      -1.01193214      -0.92278862      -0.35426044
H       -0.87540174      -0.32846419       1.17221054       0.11837018       0.80505479       0.28891830
H       -1.88015680       0.48329899      -0.95832615      -0.07784239       0.72678879      -0.68919868
H       -0.13943174       0.19707596      -1.65041582       0.33715895       1.00753103      -1.21498215
H       -1.16242941      -1.05547318      -1.15879554       0.19597418      -0.60809783       0.68849163
H        1.24908243      -0.86795148       1.00348579       0.21840295      -2.53851693       2.28096744
9
Properties=species:S:1:pos:R:3:forces:R:3 energy=-4209.548878027725 pbc="F F F"
C       -0.19209684       0.28404340       0.44942321       0.22081541      -3.09423520      -0.13597566
C       -0.09318915       1.03777367      -0.84850745       2.23219334      -0.21175993       0.74021242
O        0.23753125      -1.18062218       0.42029554      -0.91405818       1.98360352       2.14633399
H        0.61151580       0.53249381       1.16316793      -0.77668281       1.24320377       0.53366529
H       -1.29579170       0.30888799       0.74425259       1.09115557       0.13539722       0.56712158
H        0.94445906       0.87343536      -1.27162763      -0.60908534       0.14377953       0.02550751
H       -0.82737438       0.67257751      -1.55108190      -0.73692799       0.20414504      -0.72600599
H       -0.12927338       2.10519019      -0.55437470      -0.46725311       0.16481260      -0.58086197
H        0.32454755      -1.50452394      -0.44631870      -0.04015684      -0.56894655      -2.56999712
9
Properties=species:S:1:pos:R:3:forces:R:3 energy=-4209.928226698163 pbc="F F F"
C        0.39164329      -0.32430578      -0.33994143       0.68634758       1.46330020       1.04232244
C       -1.08935643      -0.14665802      -0.66223827       0.55011208      -2.07569579      -1.80954070
O        0.66855898       0.45357428       0.88251541       0.61305219       0.05934334      -1.73028544
H        0.76665919      -1.38431284      -0.13570562      -0.49055040       0.66660094      -0.76607402
H        0.99339578       0.20022171      -1.14399365      -0.10324793      -0.66559939       0.50150870
H       -1.40483754       0.85227785      -0.46654350      -0.30133555       1.34343353       0.62074514
H       -1.27159245      -0.27439466      -1.78419041      -0.00122261      -0.28717648       0.92350159
H       -1.67579961      -0.89328634      -0.09785692      -0.42042127       0.12898329      -0.01829269
H        0.29291430      -0.08971092       1.56186019      -0.53273409      -0.63318970       1.23611498
9
Properties=species:S:1:pos:R:3:forces:R:3 energy=-4209.479947179821 pbc="F F F"
C       -0.38676667      -0.09181995      -0.46607584       1.71576914       3.22920130       1.38312382