9
Properties=species:S:1:pos:R:3:forces:R:3 energy=-97079.92222178938
H 0.16712676 -1.19985031 0.84958249 -32.31755688687498 3.563851157625127 -8.174049461946362 
H -0.93496191 -0.92263607 -0.68150202 17.86555379924605 -17.647712543889742 -2.247843561659563 
H -1.75179348 0.29946017 1.2842646 1.6148356855169894 5.831962772612307 2.769853844560952 
H -0.2072526 1.35456114 1.05486243 -21.083647999402572 0.2463578798837198 1.366230674750059 
H -1.47331516 1.17441302 -0.27787521 -2.450720941229466 10.99517702273905 3.269539860440007 
H 1.05895494 -0.40161254 -1.43156577 3.778165781188996 0.48325765110016383 -17.561866215045868 
C -0.17406277 -0.48797864 0.0185579 -17.64730699309182 -26.137516505005973 40.70575377161765 
C -0.98570278 0.68695664 0.58412528 33.87945752087402 0.4667854109425499 -1.5181841552969568 
O 1.06846394 -0.16863939 -0.50269058 16.361218847951744 22.197838339813845 -18.60943594324097 
9
Properties=species:S:1:pos:R:3:forces:R:3 energy=-97071.22355557927
H 1.18129132 0.88525915 -0.17645318 -27.778814972997754 -16.056679844240136 0.4671103259093044 
H 0.17896233 0.92701421 1.19442387 -13.164959170725332 -10.483856916572302 -0.031429001017737934 
H -0.96660517 1.58609307 -1.40722389 11.921170448136701 7.472788098006514 13.533977193843047 
H -1.02901306 -0.11620693 -1.33654573 -8.900269987273974 -40.73003345754574 -36.80625240930366 
H -1.95838617 0.69792764 -0.11042 18.531062658632443 6.849600005950413 -14.448614011077895 
H 0.22355605 -1.66335171 0.81210607 -34.42047295768845 -2.9504626906977087 13.92605232138986 
C 0.22927937 0.34043263 0.22884318 40.94204877410036 74.15355464423209 1.1928079041553896 
C -0.98169102 0.72626404 -0.70885262 -12.86924267560005 -17.583691251407604 52.556274187622 
O 0.71408976 -0.94681151 0.42485929 25.739479069237106 -0.671217401904479 -30.389927697341356 
9
Properties=species:S:1:pos:R:3:forces:R:3 energy=-97074.75547467025
H -0.16287301 -0.64302268 -1.31618949 -1.4368937509139212 -4.617717595577402 -7.7542569532575065 
H 1.27993147 0.23446093 -0.84324063 8.596425874695646 10.635874431455713 0.28941859954705806 
H -0.1512842 1.86927971 0.33956012 12.295078797250385 22.782901099402345 9.304210440212561 
H -0.73139242 1.33792963 -1.27271822 -26.103840373105026 30.45452648467317 -8.16388816139848 
H -1.58192605 0.89916371 0.35305249 -10.598262559501267 -13.243933666604455 -8.122297859832864 
H 0.47292663 -1.9107182 0.44558433 -5.698945668357752 74.12888126571656 6.81448547312 
C 0.28678675 -0.08054401 -0.47353047 -31.90907592514916 -18.33244949154593 5.7980933518807705 
C -0.66671069 1.10165901 -0.21085351 38.260144904919855 -17.6075582716115 -19.038950998690478 
O 0.3402451 -0.87922676 0.65828068 16.59536751434019 -84.20052544172954 20.873184922597897 
9
Properties=species:S:1:pos:R:3:forces:R:3 energy=-97084.36308179732
H 0.73682143 0.60933282 1.20367749 8.360403611053648 -10.029149092988854 -2.859195973850056 
H 0.20738342 -1.18308217 1.05047296 2.0407233143851067 36.52781214100554 -16.720368468320075 
H -1.69259266 0.49096048 1.31016597 -1.7867738081613793 -3.0917686840676417 -12.043032533806368 
H -1.30606593 1.32318797 -0.23431622 10.218527085764842 14.904553902728708 -4.548910329351389 
H -1.7092088 -0.40667253 -0.34700013 5.456835399462772 21.39971436950768 21.386274273766094 
H 1.35608725 0.56051382 -0.94232262 -10.759968232334986 -15.786771558371951 3.7211443903446346 
C 0.23183474 -0.12985821 0.52582658 -1.8810311656884293 -8.406886610257327 -4.011624299728355 
C -1.18366458 0.38676774 0.31135695 -27.078978965955855 -47.44696261898719 3.2955567742012946 
O 0.8661473 -0.28079091 -0.75703093 15.430262761474282 11.929456965609985 11.78015616674422 
9
Properties=species:S:1:pos:R:3:forces:R:3 energy=-97070.815858336
H -0.87935395 -0.15919401 -1.2173003 28.413960884487253 6.2791216594134225 10.867167640764075 
H -0.10909584 1.4129564 -0.83407068 5.126507159630815 -36.19018635845313 28.04942052164131 
H -0.93711596 1.02779721 1.56785159 -13.390459644221298 -21.242096221821416 -15.626696389477237 
H -2.14823902 -0.25472395 0.62550138 42.7974756917517 39.80171345125477 5.617811792352861 
H -0.83256198 -0.75066756 1.49935626 29.67605631239251 -15.735554761550445 5.639924983228909 
H 1.1010276 -1.19816206 -0.86612535 -5.798196518311821 27.950386676938763 14.78449545087084 
C -0.16215553 0.3016389 -0.42246818 -35.109086354345806 -12.493087195603156 -33.70964083208191 
C -1.01965811 0.11629742 0.87294359 -43.599586392416356 19.651381322212284 -3.233179029689671 
O 1.12685261 -0.31875228 -0.38700783 -8.116672324788034 -8.021679758212125 -12.389304137609178 
9
Properties=species:S:1:pos:R:3:forces:R:3 energy=-97075.25487945565
H 0.46401241 0.79285848 -1.38125642 -4.70682137483615 -31.07553503764571 32.86258039882675 
H 0.20788686 1.53876961 0.19087164 2.2375209894493526 -34.36532872156078 -2.195232239287318 
H -1.77791125 0.57126884 -1.11048699 6.646626574875739 -18.12118242807169 37.03804129180947 
H -1.43206998 -1.09946349 -0.58902215 5.950312456342096 26.43485283168084 22.802948590015305 
H -1.94568196 0.23901528 0.70762861 22.580955775175035 -11.2697360987518 -11.816769577377471 
H 1.07884093 -1.25289728 0.08899116 -4.52317919846232 -28.896189242919014 -19.432445554030014 
C 0.16051448 0.47118191 -0.2760352 12.764738638409769 23.461973379919165 17.802866555441277 
C -1.29449855 -0.01470279 -0.19208423 -30.4703571956446 11.606804545412341 -71.95897934980457 
O 1.06572144 -0.39251262 0.48328917 -10.47979547948787 62.2243395861156 -5.103010115593445 
9
Properties=species:S:1:pos:R:3:forces:R:3 energy=-97077.54987115158
H 0.25646646 -0.70603082 1.24814148 25.60533306334624 -9.730183448196028 25.67883499509554 
H -0.74156522 -1.3041592 0.04132189 1.9597933996002221 -14.406659662450988 -19.598537578914918 
H -1.84240457 0.32768948 1.12246832 28.89598528169901 16.689575067383288 7.743311824997857 
H -0.47651709 1.63510579 0.74587179 0.021935317719065664 2.5973821024456143 15.170045005198496 
H -1.64336372 0.94310841 -0.38378703 15.369311559681657 0.6375246685088788 -12.2664483339025 
H 0.96245446 0.67635883 -0.73651157 12.544386999897918 27.982242573533256 -13.150332068116146 
C -0.0754261 -0.45712149 0.25290407 8.303209090336493 -18.456983232033473 -5.6702191535051 
C -0.96684674 0.68763743 0.471792 -70.0023260043356 16.28405747245279 -12.209402040816164 
O 1.00191441 -0.2721805 -0.67238707 -22.697629893766045 -21.596956727464384 14.302747349962935 
9
Properties=species:S:1:pos:R:3:forces:R:3 energy=-97078.04455198166
H -1.1674037 -0.04642054 -1.04643286 -8.995476001638263 0.13085535248669564 19.291443130847995 
H -0.41837058 1.37343273 -0.37195045 5.674194025653132 49.386945692183765 -6.007986048762058 
H -1.219334 0.63701467 1.72605327 -15.453309193513965 5.759829278350723 2.8715818746812616 
H -0.76561308 -1.04364447 1.4883918 9.019212581527038 -18.328635891060227 3.437799566198002 
H 0.40770982 0.37763062 1.55269789 58.4627907152519 4.38836320368015 31.402641401694193 
H 1.52310139 -0.22711024 -0.23440265 -14.599510925072318 2.7032059584607047 -10.307704385928474 
C -0.40725086 0.31780532 -0.30939538 17.928248157977105 -69.5107498185939 5.614019536645997 
C -0.49867449 -0.02438477 1.23740941 -53.239294066402785 15.104993234226907 -65.0109467104222 
O 0.7833251 -0.2878298 -0.89285742 1.2031458920392049 10.365194176086224 18.70915282086633 
9
Properties=species:S:1:pos:R:3:forces:R:3 energy=-97068.76923871019
H -1.08428403 -0.69356513 -0.54554745 -35.84246923879457 -28.521482836241002 -12.256678354299984 
H -0.78964876 1.07738077 -0.63811546 2.030157648860354 -26.99576871729846 3.335871132320825 
H -1.42217706 0.37218923 1.5902626 -39.422326608906026 21.938321403776573 -8.961274551013693 
H -0.31052444 -0.61642474 1.86346364 23.683060227479878 -33.82227367254628 -4.371375131367287 
H 0.14669883 0.96785183 1.6838213 16.755051362289542 22.941345764358054 -6.352047282134101 
H 1.53006956 0.12554468 -0.63059957 55.03825930074373 39.56207917670497 31.67222358677458 
C -0.39506549 0.04273486 -0.23225657 -7.508634282422647 74.58948736318553 -66.90158421240872 
C -0.44644767 0.21672187 1.17279286 8.755502582269164 -12.836229417664123 100.09240462020445 
O 0.75323788 -0.27254369 -0.91542002 -23.488600991519426 -56.855480250096306 -36.25753980807607 
9
Properties=species:S:1:pos:R:3:forces:R:3 energy=-97068.67854993218
H 0.26198382 1.46392721 -0.13934628 -10.623859692612077 52.16331443757446 -10.520026830134142 
H 1.01269733 0.46978893 1.13741496 -2.6474237506099874 -0.7416563578905433 -8.180387675440166 
H -1.73269756 0.88549675 1.13283804 16.808340974300414 -54.75256536510389 -26.023962281588428 
H -1.63732582 -0.53755268 -0.24255852 4.830134905466793 11.714836400216107 21.414323684801168 
H -1.2017109 -0.82079587 1.52365035 11.305211121180365 -15.437393103427182 7.932433680427791 
H 0.26375071 0.03176322 -1.59627581 30.72177853139709 -27.091460918291833 26.509545327760875 
C 0.29654172 0.50469098 0.28007993 -12.93025672590814 -117.0150255404029 -3.3075964152869077 
C -1.14907517 -0.11796465 0.69799166 -0.7250287751758315 99.01247146400695 -11.417867678065672 
O 0.83102575 -0.38444223 -0.84862332 -36.738896588038614 52.14748016913989 3.593537001704438 
9
Properties=species:S:1:pos:R:3:forces:R:3 energy=-97078.17029374573
H 1.1854442 0.47993553 -0.77193565 26.32610474096496 8.530332952845184 -34.434138359428886 
H 0.21616322 1.49827007 0.28010052 -0.1484766532384156 10.74455848783508 7.335025337923669 
H -1.54437825 0.79530867 -1.46921135 11.809980751885975 -1.900752555513588 -6.436320026449207 
H -0.93680511 -0.97794427 -1.18058585 12.03003237767305 14.285078616369352 -21.83406520318502 
H -1.69286157 -0.21725281 0.02235908 16.639234592315184 25.789463797991246 -15.117470443278695 
H 0.85485769 -0.10103213 1.66994979 0.6633660807552771 3.3846392086812047 1.3430727755320013 
C 0.3183176 0.49814431 -0.15661292 -16.381375434100985 -28.987519994103184 31.335300996102763 
C -0.96531029 0.09022651 -0.83965906 -43.308067703795864 -41.79295956829366 43.71906023449828 
O 0.60643796 -0.53484957 0.83920365 -7.630797566638138 9.947159054188354 -5.910462940072812 
9
Properties=species:S:1:pos:R:3:forces:R:3 energy=-97071.45070177181
H 0.58942011 0.56850416 1.45765342 -3.8955727371867783 30.050372583946206 -11.164233600240328 
H 0.19084583 -0.97177401 1.11895344 -16.433661841506474 5.81050889823814 -7.43955664899802 
H -1.91754606 -0.63864157 0.32633664 -9.040807568605745 15.70066909218202 -2.192641220300608 
H -1.74687615 1.20677948 0.04724915 -21.13922861767538 32.74309944181856 10.01874588494748 
H -0.99806795 0.04567495 -1.06048419 -16.49224614449019 0.19569604731200166 -3.9557401112676334 
H 1.44465926 0.56652412 -0.77008481 10.747976024091233 24.700443695114025 -9.1222106259882 
C 0.145305 0.03149213 0.59344123 -7.846686960551824 -58.22913772206091 -4.5464438215745675 
C -1.32273297 0.23833993 -0.0180853 63.51521370499956 -45.942841115481265 9.821041056782624 
O 1.03739242 -0.25161075 -0.50245265 0.585012955104544 -5.02881210688982 18.58103790081821 
9
Properties=species:S:1:pos:R:3:forces:R:3 energy=-97076.24960299351
H -1.43890599 -0.04261626 0.04499329 -2.7132593492933483 -15.771939308721711 -12.865969809511576 
H -0.27171802 -0.73808196 -1.24139944 -13.732660324371304 15.38494542435936 -9.54886785271553 
H -0.74988007 1.96914652 -0.40386762 -6.557207367218611 10.33089430231479 -8.102914429005972 
H 0.8452757 1.63080645 0.40630284 -32.11911447801918 -20.365647585569633 -12.322531740299043 
H 0.72931487 1.31501129 -1.24821332 8.566391399228651 15.685226144692807 -32.47781585803191 
H -0.2579577 -1.04518567 1.39416107 11.716634104922676 -0.6916265679366358 -2.7739544137399186 
C -0.3767215 -0.16038447 -0.29537191 -26.02847788813369 -20.453599932592187 12.908483865672453 
C 0.07656428 1.25944447 -0.39901712 55.587371523664004 21.84298257745507 34.149249596279645 
O 0.29732708 -1.01976322 0.5872997 5.2803211933997485 -5.961235054001859 31.0343218271729 
9
Properties=species:S:1:pos:R:3:forces:R:3 energy=-97079.28766160006
H -0.48917455 -1.31430462 -0.63255767 -8.731016563478972 -26.282081134611825 -8.01669930981662 
H -0.79148257 0.47502047 -1.23857661 15.03116283004771 -45.27699429709661 18.36558251740756 
H -1.98997385 0.15442517 1.07170767 -2.8129833418449897 -4.392108026545152 -16.93141259743756 
H -0.46969859 -0.22659287 1.73313304 13.19479324243546 -10.285335057706371 13.78319883155418 
H -0.69232569 1.32907273 0.9843324 2.9708422112037023 5.554965648527851 -4.823010492619126 
H 1.41693759 0.47579588 0.31310839 -15.698182425447404 -7.927455603674379 -9.397874887216336 
C -0.27858835 -0.28003755 -0.43222729 -41.77702687671222 95.59616609009869 -12.282009863496366 
C -0.90491612 0.25323355 0.85648637 -5.611931305783023 -3.7084987947042354 16.530503103093956 
O 1.07837685 -0.03625684 -0.45904916 43.43434222957975 -3.27865882428797 2.77172388435136 
9
Properties=species:S:1:pos:R:3:forces:R:3 energy=-97078.72957415297
H -0.57660767 -1.28615216 -0.67026655 4.7826249852368035 21.468309373766363 -0.8707626243335791 
H -0.7570026 0.52706622 -1.19368888 13.04329037388625 -26.745785782475437 13.954003309278072 
H -2.05342424 0.33616306 0.81875616 17.183551354923207 -10.160930571712903 -8.787658491588438 
H -0.80510263 -0.44272026 1.68974471 21.356144932615376 -36.110231188568505 52.296913779962864 
H -0.6116232 1.2295516 1.03502202 12.60616353313894 10.895735255596486 19.16950159516821 
H 1.21938944 0.41082614 -1.21379506 22.81022597377798 13.802168410835828 -24.410760657473585 
C -0.29376757 -0.20132971 -0.40779038 -15.257540811118123 -11.070639116678297 -28.541501867148845 
C -0.92128671 0.19647111 0.88363364 -51.98508079099393 47.829125468405906 -38.702152585094765 
O 1.13788557 -0.04525437 -0.38655708 -24.539378365645444 -9.907751849169435 15.892417541230058 
9
Properties=species:S:1:pos:R:3:forces:R:3 energy=-97076.53856544431
H -1.45666131 0.27539563 -0.23977018 -34.56167341298524 0.4251156593668138 0.7566000747191554 
H -0.18851714 -0.13814463 -1.42816244 -5.292168731475821 8.212236457108382 -16.70000673512978 
H 1.37903252 0.85525728 -0.02389291 56.38207914353506 1.8604974884463852 -8.599294375807249 
H 0.14404508 2.16390268 -0.55387475 18.451463235061787 -31.442998449371398 11.266526081178794 
H 0.2927424 1.62288314 1.07114096 -12.09722929891785 -6.20990884238949 29.89829814965256 
H 0.31242072 -1.01058649 1.09121061 11.265283340722009 8.847045595420663 39.490817260912614 
C -0.40961095 0.09678593 -0.38593292 5.7205453987206445 -75.81393771614704 18.154795711457176 
C 0.39610325 1.21004824 0.07991633 -17.473826117265876 69.85146229333048 -29.368048782119747 
O -0.02035437 -1.21855422 0.23497656 -22.394474743215763 24.27048632841415 -44.89968619904246 
9
Properties=species:S:1:pos:R:3:forces:R:3 energy=-97072.95712505389
H -1.40103179 -0.13505771 -0.41215083 -68.61142432271208 -10.568292118370783 18.350960158082565 
H -0.27410342 -0.61390244 -1.43780747 32.764226029583874 -23.942336441844702 -42.11568195193304 
H -0.38000352 1.89837227 -1.01944435 -1.7610331907039376 -10.880400217822514 11.256814206807555 
H 0.02660654 1.71996742 0.73190865 2.4427130917021196 -24.80687706314704 -14.875425394541276 
H 1.11514611 1.1749529 -0.68345936 30.292345297599784 10.733784117806135 10.451768599052683 
H 0.25925904 -1.81175512 0.5534934 -1.7364108024933917 -18.966900511902153 -2.4537625722138645 
C -0.36176115 -0.23418256 -0.45732575 18.494538184577685 46.23479144296271 80.6195118960977 
C 0.11360337 1.19645302 -0.27366449 -7.854215738376365 35.06937676496001 -43.07027263768927 
O 0.22743806 -0.86311724 0.69159894 -4.030737363356633 -2.8731459726416597 -18.16391230366304 
9
Properties=species:S:1:pos:R:3:forces:R:3 energy=-97068.123235024
H 0.12549744 -0.81275685 1.31667603 5.604735743672564 -2.52768191297155 -1.1420440909736682 
H -0.43211239 -1.28015574 -0.37668004 -14.301192738570908 -15.501115569005595 15.64302751693031 
H -1.95687532 -0.12698744 0.68508167 5.816888615468574 36.67666469951572 0.06170775562032321 
H -1.00999307 1.56854261 0.69893193 4.732788484113483 -20.007352942175867 2.799960655111787 
H -1.39264738 0.59538697 -0.77898325 -8.615529451755553 18.474476464112165 -21.385237866171412 
H 1.89682687 -0.56092387 -0.39668988 -10.02648099563412 -9.684526966261796 11.205979244363041 
C -0.11985849 -0.45706087 0.29021524 130.15873361215301 -56.023444169500934 -29.47125671690615 
C -1.10381447 0.534105 0.26175056 -96.29663058229525 27.40833246088755 7.945724362717514 
O 1.09300749 -0.01906781 -0.48670261 -17.073312687151816 21.1846479354003 14.34213913930825 
9
Properties=species:S:1:pos:R:3:forces:R:3 energy=-97076.80985294681
H -0.55100876 0.46864764 1.32674224 12.90859177538769 1.719394270475412 16.803428117704563 
H -1.48063994 -0.0978245 0.03319797 -2.0455413052972355 -12.024359409786358 1.696685797433996 
H 1.00153521 0.7809686 -0.87854841 52.88033654904399 -12.503771443232566 -28.962483754347385 
H -0.58962627 1.22183329 -1.59806415 10.881510146322084 -1.1610124844342682 13.093877499732036 
H 0.26847246 2.13686265 -0.2659136 -10.24976398377304 10.31098792440637 8.315149122454194 
H 0.52794569 -1.48228927 -0.44396493 5.161418917062268 -17.08134425310009 -61.1317715066671 
C -0.40748035 0.0666469 0.32158298 -56.68168750333512 17.473989760570298 -18.53285680587587 
C 0.04143735 1.14246359 -0.66572518 -20.854275820189617 3.7914031015316243 -2.923305017089641 
O 0.32659315 -1.0985423 0.37341665 7.999413596421073 9.474713719390627 71.64127654665522 
9
Properties=species:S:1:pos:R:3:forces:R:3 energy=-97075.59018707108
H -1.2984302 0.09349653 -0.88897398 23.79519976638889 -0.4311206571465385 5.433719003981343 
H -0.20631646 1.42827155 -0.37998227 -6.440464471006896 8.281892771203724 8.702278190415853 
H -1.28088277 0.61956854 1.67600591 -46.38939523354865 28.808663791473222 26.699101193693846 
H -0.67936275 -1.18203097 1.5588812 -7.784323445892759 40.001103331126764 -16.80421550287947 
H 0.42137582 0.27026338 1.64237221 -12.023472415643539 -5.618758077548008 12.678803372987401 
H 1.50165855 -0.25831732 -0.31734824 39.56440220013517 2.7492347882035557 36.75211612106555 
C -0.35239584 0.33550455 -0.2927215 -9.37902151839725 -30.66622162954521 4.631270344318413 
C -0.59609608 -0.05046819 1.27183283 92.09247281998604 -42.688318492774755 -59.848138011093376 
O 0.80910883 -0.27525794 -0.94234143 -73.435397702021 -0.4364746391717078 -18.244934712489556 
9
Properties=species:S:1:pos:R:3:forces:R:3 energy=-97073.78594534157
H -0.75846219 -0.56169814 -1.22063259 -12.333518372295321 -1.0621636278149797 27.29762895126591 
H -0.30803147 1.06693807 -1.12660709 6.268657974498673 -4.444592466065417 22.734494698461162 
H -2.03356844 0.50760914 0.84039349 -15.334106904451707 9.455831890866424 -4.312379348480421 
H -0.88343855 -0.55045125 1.44501545 8.292011382193929 -81.26651246058955 44.19980987408499 
H -0.50618756 1.05407555 1.55373943 19.292636066820823 36.25230559397661 16.708820942968778 
H 1.78728975 0.22241501 -0.66641651 -17.153826378749358 -3.5991530501808944 6.136587155439264 
C -0.29512056 0.13737315 -0.46254404 41.93512765356443 -2.7222502444682837 -28.79055511827137 
C -0.96674251 0.32626508 0.94126084 2.632850009947899 21.075788377506044 -89.3466033919126 
O 1.11746174 -0.45769384 -0.41137608 -33.59983143152936 26.310747172591103 5.372196236444281 
9
Properties=species:S:1:pos:R:3:forces:R:3 energy=-97072.00040455653
H -0.1623876 -0.29204978 -1.54135473 -16.14689829528264 -6.887712294386502 25.992689808948835 
H 0.01395808 1.27701694 -0.97584823 -20.181940189038247 0.841937686334063 25.14019950112153 
H -1.13453579 0.40057608 1.57855725 25.38964644483151 0.11266367181158554 -18.240702517174423 
H -2.2413265 0.38641248 0.39500765 2.6382253367519057 -12.304776441769064 -21.306546781522407 
H -1.37281935 -1.13865918 0.88505615 5.021086482771552 -3.0773087822260217 -19.738631663175276 
H 1.64828965 0.41912825 0.62695153 -30.963869827155317 -15.001989260660508 -26.841796969330336 
C -0.12391654 0.24248832 -0.53370511 44.923584050593576 -13.507372112842669 8.071637213082193 
C -1.23675744 -0.08723224 0.55098222 -4.303609016020145 35.31195661898943 14.041770668217357 
O 1.22606267 -0.18294607 -0.07397582 -6.376223801631143 14.512602100570732 12.881380739832528 
9
Properties=species:S:1:pos:R:3:forces:R:3 energy=-97072.28636418936
H 1.18522012 0.75022685 -0.56905675 10.335417023786327 -22.727066715425583 18.202618688443454 
H 0.36007805 0.98931376 0.97492576 -5.444419853105402 29.608455026170837 13.227529018246496 
H -1.6087016 -0.21907968 -0.95537583 29.219598216944355 26.30318756341935 13.502490087594026 
H -1.40063162 1.471922 -0.3566233 -6.278795558625621 11.465387084864036 -9.296975746007565 
H -0.53552669 0.83509482 -1.82974923 13.783947084634553 18.12311057309338 -38.66301574727446 
H 1.20629958 -0.87749002 1.28879677 -44.0813048477981 -12.432126507242158 -33.4294301329613 
C 0.35854246 0.33911769 0.11066212 -4.370485765582376 35.43346651580827 -38.95361661040493 
C -0.83230513 0.66430324 -0.83230564 -46.281872095973846 -61.583971318737106 49.98691896561157 
O 0.40556427 -0.93920463 0.63289974 53.11791460989907 -24.190442221951038 25.4234814767527 
9
Properties=species:S:1:pos:R:3:forces:R:3 energy=-97077.35116156114
H -0.96895871 -1.15301423 -0.42260045 2.2391408209989385 33.9288623831364 8.69120736512527 
H -0.8296107 0.68455695 -0.8807915 -34.483908454573594 4.731307393626342 -20.214334448387874 
H -1.60691575 0.60881202 1.21545903 13.914501238575426 3.741427859345858 8.608705051632663 
H -0.31842718 -0.4940953 1.77308288 6.488870871948077 21.92679522320411 3.7840261088010423 
H 0.06271647 1.27020655 1.3582738 18.36476430088544 18.122756012600462 -0.2722846712454698 
H 0.94542575 -0.7590202 -1.54296323 -7.301152359728994 14.282291936909962 20.605102801141395 
C -0.43329865 -0.12509463 -0.27172555 -2.270978930277736 -13.735834767312916 -45.03930951234735 
C -0.50242823 0.39572437 1.0970495 -53.52862965847659 -55.734923236486104 41.83784763818973 
O 0.87347471 -0.21317428 -0.71409506 56.57738979900694 -27.26268161920306 -18.0009603329094 
9
Properties=species:S:1:pos:R:3:forces:R:3 energy=-97080.61265769074
H -0.29628961 -0.32103933 -1.50281619 3.048929712940008 -0.817425579480846 7.210565118341013 
H -0.24729977 1.33316057 -0.77163369 11.214940494011811 -18.54784914136739 1.3154431451474067 
H -0.87933192 0.41591175 1.54130966 -3.41091463143064 7.782760533753408 -27.53786799454944 
H -2.1103935 0.32653284 0.27006689 -41.32792917249999 8.79195590706113 -9.013678354702794 
H -1.22548615 -1.06085611 0.99257887 -5.960152399386359 -39.307644669673216 -13.342788452328977 
H 1.35120045 0.16748156 0.78340482 -1.765106485998834 18.36787352366949 35.09893572618734 
C -0.09294194 0.2107215 -0.53944299 -32.95165453255934 15.955836436620553 23.73338054359019 
C -1.17567506 -0.0872961 0.54222987 53.72195524951654 29.504979095827913 31.372133783629625 
O 1.16695864 -0.14700343 -0.08480363 17.429932951227862 -21.73048729223209 -48.83612351531438 
9
Properties=species:S:1:pos:R:3:forces:R:3 energy=-97067.05713048378
H 0.85842335 1.22324254 -0.64460321 -19.68772080818378 -3.6380788118549154 -5.086420479152222 
H -0.56571146 1.37254966 0.55200738 19.655894557115452 -6.065408247120153 -0.7996335204984231 
H -1.64957327 0.22926788 -1.49773278 39.70256458191069 -6.506107966680716 -18.236092044945444 
H -0.22974102 -1.09378541 -1.14870795 -23.68935693723705 -5.6554011337074215 -13.582401382099924 
H -1.84406848 -0.55146861 -0.20795875 37.48758012145102 -17.392381556146788 18.953430770634405 
H 0.94222304 -1.13518193 0.39994306 -2.913950074853415 -16.88101994624341 -24.00625931117998 
C 0.0636198 0.66513761 -0.06713187 1.5806816677342819 -50.25073687458468 26.025284472055333 
C -0.89972146 -0.28371579 -0.78908388 -47.681470589152745 42.95929164594274 -17.676648949067637 
O 0.78436538 -0.28923795 0.80321926 -4.454222518784443 63.4298417045743 34.408740444253894 
9
Properties=species:S:1:pos:R:3:forces:R:3 energy=-97081.50076821611
H 0.42029528 0.22366452 1.44236304 5.600683793156505 -6.376340012093705 -20.94181550148797 
H -0.24677067 -1.20701211 0.73995025 0.9368863775312511 -43.57253781434458 3.651038650072651 
H -1.98016521 0.1283668 0.95041646 10.611188008908654 14.03493796734714 -21.677490578019718 
H -1.00314907 1.55975534 0.29201345 -14.57476521147293 12.240644867929593 -4.9528235084059045 
H -1.61402628 0.30245927 -0.88922312 -0.11234705759215692 0.9167629943713127 10.779427555708857 
H 1.89227045 -0.00039372 -0.26726194 23.454985336491852 9.179381430284428 15.19385036270797 
C 0.06867869 -0.22905465 0.44813384 8.722112233240432 23.36096870063725 19.616758905116193 
C -1.2459771 0.49773686 0.15119753 6.470644802462618 -6.7905579760427335 5.005879513670607 
O 1.04321581 -0.26522294 -0.59281332 -41.10938828272622 -2.993260158088713 -6.674825399362678 
9
Properties=species:S:1:pos:R:3:forces:R:3 energy=-97078.94857833542
H 0.57753937 -0.26042021 1.41340096 -3.2093214960541494 -5.64193494990281 -9.99642991867247 
H -0.27683424 -1.50087602 0.4811798 -4.834067088057149 -10.149999673305816 -11.701272979085678 
H -1.86274266 0.88068791 1.09261736 27.303231955710856 -22.97658955168254 -1.6671541100907368 
H -0.5846847 1.52003383 0.06669663 9.893867070535391 19.385171612188287 -6.913404293181036 
H -1.74729115 0.32289173 -0.61050185 23.450748397892532 9.262615395362756 23.95436185307776 
H 1.48275796 -0.91336628 -0.6767593 1.2370283568022529 20.567850232964055 -12.594115591306004 
C 0.0637258 -0.45638248 0.41100752 -17.32581074841457 53.0248466308817 49.90424115060407 
C -1.07560329 0.58837265 0.3105154 -53.9455121623172 -18.696042383375683 -27.275570308158002 
O 0.91145673 -0.10226297 -0.65294048 17.42983689972309 -44.77591849895099 -3.7106558031879078 
9
Properties=species:S:1:pos:R:3:forces:R:3 energy=-97076.29748006252
H -0.25585398 -1.03632636 1.07314394 -4.910975883673188 10.827149737906181 -3.705709743602752 
H -0.7796787 -1.14611819 -0.56945519 -15.26090972871137 -2.352748406363577 -17.365032965350224 
H -1.97674451 0.80225353 0.71465716 -29.820624499461495 -11.680585145107584 -11.916677372191327 
H -0.64576894 1.70500938 1.0187435 17.80463342880064 -33.82768813144482 -8.677284640217737 
H -0.91359612 1.51285482 -0.62021315 -14.932715966763203 3.918310855754357 -28.88038343418956 
H 1.16701562 -0.95816042 -1.11972164 7.052901909454982 17.242594570651935 19.154345616372265 
C -0.26523197 -0.46226433 0.09997404 38.59399266161797 12.298409768570139 38.19111944762128 
C -0.99919583 0.90011057 0.26352082 40.204674416008906 13.198736097415237 32.25902713165941 
O 1.16362647 -0.3841924 -0.30419452 -38.73097515145219 -9.624179347381862 -19.05940404010136 
9
Properties=species:S:1:pos:R:3:forces:R:3 energy=-97075.31703499508
H 0.20445352 -1.53505334 -0.12321536 -7.5228344894550725 0.5947082279811297 10.777564630844727 
H 0.41599275 -0.46118269 -1.46591408 9.363158790257563 13.069019133133228 40.023909041493994 
H -1.18378046 0.99134554 -1.06359685 -5.969485996843749 -7.56504023214385 24.794425942158277 
H -1.8412438 -0.60614138 -0.80138806 -11.664249274370322 1.453365991071535 4.825474628753855 
H -1.68752775 0.50120063 0.62117719 5.270298633914315 -4.060182485763495 10.668941051338734 
H 0.56513235 0.0296264 1.36828305 8.007113132476315 7.69025819137525 19.62893728726425 
C 0.13261892 -0.43456978 -0.32241402 57.81473714167071 -23.39452862207564 -27.6560896096062 
C -1.19489313 0.14205341 -0.2943211 -53.82201720106644 24.529008360593373 -57.8740827417663 
O 1.01957807 0.28754803 0.55525232 -1.4767207365833201 -12.316607378350485 -25.18908141630238 
9
Properties=species:S:1:pos:R:3:forces:R:3 energy=-97071.50632761835
H -1.152551 -0.8060532 -0.67457311 -3.332106150498032 22.785911899039533 -0.20621902327907854 
H -0.72916615 0.96278407 -0.73110939 -54.06545796117565 131.4203962153763 -58.059112328764606 
H -1.26416272 0.60009327 1.75935265 -10.045942690650083 -3.7243804959806677 -11.522227045088274 
H -0.25271108 -0.87838936 1.66185737 -5.659518304381041 11.815716568288135 -14.112800163084602 
H 0.40672262 0.71343215 1.53775638 28.79555572562467 18.83424745470889 -3.2558649721312025 
H 0.80594967 -0.27244101 -1.75085457 9.969677795862323 2.8358613872960623 49.106113622834776 
C -0.51099076 0.08440843 -0.37623458 54.30002996567772 -146.72313696732573 101.76862670383815 
C -0.42901123 0.13832744 1.18980734 -24.601850975840787 -27.16966818795384 3.7428555878859027 
O 0.84330411 -0.18742503 -0.7242971 4.6396125953808856 -10.074947873448673 -67.46137238221107 
9
Properties=species:S:1:pos:R:3:forces:R:3 energy=-97071.74686279544
H 0.2811704 0.48689409 1.44914972 0.05213699395362526 1.7177044754840793 -14.30279596862584 
H -0.44996206 -0.97132634 1.03857698 -17.578701316443723 -42.04597583335375 9.32064591991773 
H -1.83529459 1.21679931 0.50771285 23.162242880551315 -26.385929412763364 -41.12577751541058 
H -0.59785069 1.20040976 -0.8669176 48.97603023984938 77.3960815012317 -74.91499524046326 
H -1.57004511 -0.22645446 -0.79064665 -24.59085367145509 6.214286893693348 -14.63645399395651 
H 1.53072621 -1.21630753 0.08712911 -17.887833005068615 32.8536808118724 -15.295577207007232 
C -0.03789052 -0.12904899 0.53733647 6.615545019424641 57.841145376377355 25.388655098436594 
C -1.14513524 0.62950735 -0.2642746 -38.90730199778986 -68.83317048677468 121.00303184234714 
O 1.05442691 -0.40665731 -0.29476 20.158733671157282 -38.757820954125016 4.56326706476196 
9
Properties=species:S:1:pos:R:3:forces:R:3 energy=-97076.07281804319
H 0.70759363 -0.22505045 1.36650396 21.767173037949185 -7.719799365286882 5.094686837667716 
H -0.32090961 -1.5615275 0.50151855 19.564332570827208 54.697173292377485 0.5694620979000988 
H -1.62646936 0.62286813 1.28691815 -23.94937784721911 -1.2495529986959046 22.711254977590894 
H -0.47739837 1.63607634 0.4339806 9.479084655768206 10.132328568070141 6.605165527804195 
H -1.4856573 0.61152149 -0.54880683 0.9919594643961319 -4.781996500082131 26.01381402507206 
H 0.66572852 0.5898767 -1.31679964 -5.59933195716344 -25.93636093759566 37.06802477697147 