
     Program PWSCF v.7.1 starts on  5Sep2022 at 15: 3:50 

     This program is part of the open-source Quantum ESPRESSO suite
     for quantum simulation of materials; please cite
         "P. Giannozzi et al., J. Phys.:Condens. Matter 21 395502 (2009);
         "P. Giannozzi et al., J. Phys.:Condens. Matter 29 465901 (2017);
         "P. Giannozzi et al., J. Chem. Phys. 152 154105 (2020);
          URL http://www.quantum-espresso.org", 
     in publications or presentations arising from this work. More details at
     http://www.quantum-espresso.org/quote

     Parallel version (MPI), running on     1 processors

     MPI processes distributed on     1 nodes
     8500 MiB available memory on the printing compute node when the environment starts

     Waiting for input...
     Reading input from standard input
Warning: card &CELL ignored
Warning: card / ignored

     Current dimensions of program PWSCF are:
     Max number of different atomic species (ntypx) = 10
     Max number of k-points (npk) =  40000
     Max angular momentum in pseudopotentials (lmaxx) =  4

     gamma-point specific algorithms are used

     Subspace diagonalization in iterative solution of the eigenvalue problem:
     a serial algorithm will be used


     G-vector sticks info
     --------------------
     sticks:   dense  smooth     PW     G-vecs:    dense   smooth      PW
     Sum       11913   11913   2965               979259   979259  122321

     Using Slab Decomposition



     bravais-lattice index     =            1
     lattice parameter (alat)  =      24.9822  a.u.
     unit-cell volume          =   15591.6104 (a.u.)^3
     number of atoms/cell      =            2
     number of atomic types    =            1
     number of electrons       =         2.00
     number of Kohn-Sham states=            5
     kinetic-energy cutoff     =      60.0000  Ry
     charge density cutoff     =     240.0000  Ry
     scf convergence threshold =      1.0E-10
     mixing beta               =       0.5000
     number of iterations used =            8  plain     mixing
     energy convergence thresh.=      1.0E-04
     force convergence thresh. =      1.0E-03
     Exchange-correlation=  SLA  PW   PBX  PBC
                           (   1   4   3   4   0   0   0)
     nstep                     =           50


     celldm(1)=  24.982179  celldm(2)=   0.000000  celldm(3)=   0.000000
     celldm(4)=   0.000000  celldm(5)=   0.000000  celldm(6)=   0.000000

     crystal axes: (cart. coord. in units of alat)
               a(1) = (   1.000000   0.000000   0.000000 )  
               a(2) = (   0.000000   1.000000   0.000000 )  
               a(3) = (   0.000000   0.000000   1.000000 )  

     reciprocal axes: (cart. coord. in units 2 pi/alat)
               b(1) = (  1.000000  0.000000  0.000000 )  
               b(2) = (  0.000000  1.000000  0.000000 )  
               b(3) = (  0.000000  0.000000  1.000000 )  


     PseudoPot. # 1 for H  read from file:
     ../../pseudos/H.pbe-tm-new-gipaw-dc.UPF
     MD5 check sum: 0e5abdcbf773fd5bd1c97111569d22ab
     Pseudo is Norm-conserving, Zval =  1.0
     Generated by new atomic code, or converted to UPF format
     Using radial grid of 1261 points,  0 beta functions with: 

     atomic species   valence    mass     pseudopotential
        H              1.00     1.00800     H ( 1.00)

     No symmetry found



   Cartesian axes

     site n.     atom                  positions (alat units)
         1           H   tau(   1) = (   0.0000000   0.0000000   0.0000000  )
         2           H   tau(   2) = (   0.0075643   0.0000000   0.0000000  )

     -------------------------------------------------
     Parameters for Dispersion (Grimme-D2) Correction:
     -------------------------------------------------
       atom      VdW radius       C_6     

        H          1.892          4.857

     number of k points=     1  Marzari-Vanderbilt smearing, width (Ry)=  0.0200
                       cart. coord. in units 2pi/alat
        k(    1) = (   0.0000000   0.0000000   0.0000000), wk =   2.0000000

     Dense  grid:   489630 G-vectors     FFT dimensions: ( 125, 125, 125)

     Estimated max dynamical RAM per process >     361.04 MB

     Initial potential from superposition of free atoms

     starting charge       1.0000, renormalised to       2.0000

     negative rho (up, down):  6.735E-04 0.000E+00
     Starting wfcs are    4 randomized atomic wfcs +    1 random wfcs

     total cpu time spent up to now is        2.0 secs

     Self-consistent Calculation

     iteration #  1     ecut=    60.00 Ry     beta= 0.50
     Davidson diagonalization with overlap
     ethr =  1.00E-02,  avg # of iterations =  8.0

     negative rho (up, down):  3.338E-04 0.000E+00

     total cpu time spent up to now is        3.9 secs

     total energy              =       5.08476301 Ry
     estimated scf accuracy    <       0.45586708 Ry

     iteration #  2     ecut=    60.00 Ry     beta= 0.50
     Davidson diagonalization with overlap
     ethr =  1.00E-02,  avg # of iterations =  1.0

     negative rho (up, down):  6.133E-05 0.000E+00

     total cpu time spent up to now is        4.9 secs

     total energy              =       5.11290178 Ry
     estimated scf accuracy    <       0.06542316 Ry

     iteration #  3     ecut=    60.00 Ry     beta= 0.50
     Davidson diagonalization with overlap
     ethr =  3.27E-03,  avg # of iterations =  2.0

     negative rho (up, down):  3.315E-05 0.000E+00

     total cpu time spent up to now is        6.0 secs

     total energy              =       5.10282138 Ry
     estimated scf accuracy    <       0.00085095 Ry

     iteration #  4     ecut=    60.00 Ry     beta= 0.50
     Davidson diagonalization with overlap
     ethr =  4.25E-05,  avg # of iterations = 13.0

     negative rho (up, down):  7.369E-06 0.000E+00

     total cpu time spent up to now is        8.5 secs

     total energy              =       5.10271229 Ry
     estimated scf accuracy    <       0.00021271 Ry

     iteration #  5     ecut=    60.00 Ry     beta= 0.50
     Davidson diagonalization with overlap
     ethr =  1.06E-05,  avg # of iterations =  2.0

     total cpu time spent up to now is        9.7 secs

     total energy              =       5.10267361 Ry
     estimated scf accuracy    <       0.00001252 Ry

     iteration #  6     ecut=    60.00 Ry     beta= 0.50
     Davidson diagonalization with overlap
     ethr =  6.26E-07,  avg # of iterations =  4.0

     total cpu time spent up to now is       11.0 secs

     total energy              =       5.10267176 Ry
     estimated scf accuracy    <       0.00000002 Ry

     iteration #  7     ecut=    60.00 Ry     beta= 0.50
     Davidson diagonalization with overlap
     ethr =  1.02E-09,  avg # of iterations =  1.0

     total cpu time spent up to now is       12.1 secs

     total energy              =       5.10267176 Ry
     estimated scf accuracy    <          2.3E-09 Ry

     iteration #  8     ecut=    60.00 Ry     beta= 0.50
     Davidson diagonalization with overlap
     ethr =  1.13E-10,  avg # of iterations =  1.0

     total cpu time spent up to now is       13.0 secs

     End of self-consistent calculation

          k = 0.0000 0.0000 0.0000 ( 61161 PWs)   bands (ev):

   -15.0450  -0.0681   0.7184   0.7587   0.7620

     the Fermi energy is    -7.1415 ev

!    total energy              =       5.10267176 Ry
     estimated scf accuracy    <          9.9E-11 Ry
     smearing contrib. (-TS)   =      -0.00000000 Ry
     internal energy E=F+TS    =       5.10267176 Ry

     The total energy is F=E-TS. E is the sum of the following terms:
     one-electron contribution =      -6.42875399 Ry
     hartree contribution      =       3.36760673 Ry
     xc contribution           =      -1.96499548 Ry
     ewald contribution        =      10.12926239 Ry
     Dispersion Correction     =      -0.00044788 Ry

     convergence has been achieved in   8 iterations

     Forces acting on atoms (cartesian axes, Ry/au):

     atom    1 type  1   force =   -55.03115473    0.00000000   -0.00000000
     atom    2 type  1   force =    55.03115473   -0.00000000    0.00000000

     Total force =    55.031155     Total SCF correction =     0.000000

     BFGS Geometry Optimization
     Energy error            =      0.0E+00 Ry
     Gradient error          =      5.5E+01 Ry/Bohr

     number of scf cycles    =   1
     number of bfgs steps    =   0

     energy             new  =       5.1026717587 Ry

     new trust radius        =       0.5000000000 bohr
     new conv_thr            =            1.0E-10 Ry


ATOMIC_POSITIONS (angstrom)
H             0.0000000000        0.0000000000        0.0000000000    0   0   0
H             0.3645886055        0.0000000000        0.0000000000    1   0   0



     Writing config-only to output data dir ./pwscf.save/
     NEW-OLD atomic charge density approx. for the potential

     negative rho (up, down):  3.686E-04 0.000E+00

     total cpu time spent up to now is       13.9 secs

     Self-consistent Calculation

     iteration #  1     ecut=    60.00 Ry     beta= 0.50
     Davidson diagonalization with overlap
     ethr =  1.00E-06,  avg # of iterations = 13.0

     negative rho (up, down):  1.498E-04 0.000E+00

     total cpu time spent up to now is       16.5 secs

     total energy              =      -1.79543841 Ry
     estimated scf accuracy    <       0.16720648 Ry

     iteration #  2     ecut=    60.00 Ry     beta= 0.50
     Davidson diagonalization with overlap
     ethr =  8.36E-03,  avg # of iterations =  1.0

     negative rho (up, down):  3.473E-05 0.000E+00

     total cpu time spent up to now is       17.5 secs

     total energy              =      -1.79616777 Ry
     estimated scf accuracy    <       0.02000353 Ry

     iteration #  3     ecut=    60.00 Ry     beta= 0.50
     Davidson diagonalization with overlap
     ethr =  1.00E-03,  avg # of iterations =  1.0

     negative rho (up, down):  8.030E-06 0.000E+00

     total cpu time spent up to now is       18.5 secs

     total energy              =      -1.79817103 Ry
     estimated scf accuracy    <       0.00029652 Ry

     iteration #  4     ecut=    60.00 Ry     beta= 0.50
     Davidson diagonalization with overlap
     ethr =  1.48E-05,  avg # of iterations =  5.0

     total cpu time spent up to now is       19.9 secs

     total energy              =      -1.79819031 Ry
     estimated scf accuracy    <       0.00001897 Ry

     iteration #  5     ecut=    60.00 Ry     beta= 0.50
     Davidson diagonalization with overlap
     ethr =  9.49E-07,  avg # of iterations =  7.0

     negative rho (up, down):  3.292E-08 0.000E+00

     total cpu time spent up to now is       21.4 secs

     total energy              =      -1.79819049 Ry
     estimated scf accuracy    <       0.00000030 Ry

     iteration #  6     ecut=    60.00 Ry     beta= 0.50
     Davidson diagonalization with overlap
     ethr =  1.50E-08,  avg # of iterations =  1.0

     total cpu time spent up to now is       22.4 secs

     total energy              =      -1.79819052 Ry
     estimated scf accuracy    <          2.8E-09 Ry

     iteration #  7     ecut=    60.00 Ry     beta= 0.50
     Davidson diagonalization with overlap
     ethr =  1.41E-10,  avg # of iterations =  2.0

     total cpu time spent up to now is       23.5 secs

     total energy              =      -1.79819052 Ry
     estimated scf accuracy    <          2.8E-10 Ry

     iteration #  8     ecut=    60.00 Ry     beta= 0.50
     Davidson diagonalization with overlap
     ethr =  1.41E-11,  avg # of iterations =  1.0

     total cpu time spent up to now is       24.4 secs

     End of self-consistent calculation

          k = 0.0000 0.0000 0.0000 ( 61161 PWs)   bands (ev):

   -12.8421  -0.0652   0.7082   0.7182   0.7334

     the Fermi energy is    -6.0543 ev

!    total energy              =      -1.79819052 Ry
     estimated scf accuracy    <          4.4E-11 Ry
     smearing contrib. (-TS)   =      -0.00000000 Ry
     internal energy E=F+TS    =      -1.79819052 Ry

     The total energy is F=E-TS. E is the sum of the following terms:
     one-electron contribution =      -5.38655768 Ry
     hartree contribution      =       2.84026322 Ry
     xc contribution           =      -1.70060238 Ry
     ewald contribution        =       2.44870925 Ry
     Dispersion Correction     =      -0.00000293 Ry

     convergence has been achieved in   8 iterations

     Forces acting on atoms (cartesian axes, Ry/au):

     atom    1 type  1   force =    -2.52342372    0.00000000   -0.00000000
     atom    2 type  1   force =     2.52342372   -0.00000000    0.00000000

     Total force =     2.523424     Total SCF correction =     0.000001
     Energy error            =      6.9E+00 Ry
     Gradient error          =      2.5E+00 Ry/Bohr

     number of scf cycles    =   2
     number of bfgs steps    =   1

     energy             old  =       5.1026717587 Ry
     energy             new  =      -1.7981905183 Ry

     CASE: energy            _new < energy            _old

     new trust radius        =       0.0240290684 bohr
     new conv_thr            =            1.0E-10 Ry


ATOMIC_POSITIONS (angstrom)
H             0.0000000000        0.0000000000        0.0000000000    0   0   0
H             0.3773042408        0.0000000000        0.0000000000    1   0   0



     Writing config-only to output data dir ./pwscf.save/
     NEW-OLD atomic charge density approx. for the potential

     negative rho (up, down):  4.565E-05 0.000E+00

     total cpu time spent up to now is       25.4 secs

     Self-consistent Calculation

     iteration #  1     ecut=    60.00 Ry     beta= 0.50
     Davidson diagonalization with overlap
     ethr =  1.00E-06,  avg # of iterations =  5.0

     negative rho (up, down):  2.155E-05 0.000E+00

     total cpu time spent up to now is       27.0 secs

     total energy              =      -1.85566116 Ry
     estimated scf accuracy    <       0.00038562 Ry

     iteration #  2     ecut=    60.00 Ry     beta= 0.50
     Davidson diagonalization with overlap
     ethr =  1.93E-05,  avg # of iterations =  1.0

     negative rho (up, down):  4.483E-06 0.000E+00

     total cpu time spent up to now is       28.0 secs

     total energy              =      -1.85565927 Ry
     estimated scf accuracy    <       0.00004638 Ry

     iteration #  3     ecut=    60.00 Ry     beta= 0.50
     Davidson diagonalization with overlap
     ethr =  2.32E-06,  avg # of iterations =  2.0

     negative rho (up, down):  1.292E-06 0.000E+00

     total cpu time spent up to now is       29.1 secs

     total energy              =      -1.85566461 Ry
     estimated scf accuracy    <       0.00000035 Ry

     iteration #  4     ecut=    60.00 Ry     beta= 0.50
     Davidson diagonalization with overlap
     ethr =  1.74E-08,  avg # of iterations =  2.0

     negative rho (up, down):  2.838E-08 0.000E+00

     total cpu time spent up to now is       30.1 secs

     total energy              =      -1.85566463 Ry
     estimated scf accuracy    <       0.00000004 Ry

     iteration #  5     ecut=    60.00 Ry     beta= 0.50
     Davidson diagonalization with overlap
     ethr =  2.15E-09,  avg # of iterations =  4.0

     total cpu time spent up to now is       31.4 secs

     total energy              =      -1.85566463 Ry
     estimated scf accuracy    <          3.7E-10 Ry

     iteration #  6     ecut=    60.00 Ry     beta= 0.50
     Davidson diagonalization with overlap
     ethr =  1.86E-11,  avg # of iterations =  1.0

     total cpu time spent up to now is       32.3 secs

     End of self-consistent calculation

          k = 0.0000 0.0000 0.0000 ( 61161 PWs)   bands (ev):

   -12.7326  -0.0657   0.7030   0.7181   0.7298

     the Fermi energy is    -6.0014 ev

!    total energy              =      -1.85566463 Ry
     estimated scf accuracy    <          2.2E-11 Ry
     smearing contrib. (-TS)   =      -0.00000000 Ry
     internal energy E=F+TS    =      -1.85566463 Ry

     The total energy is F=E-TS. E is the sum of the following terms:
     one-electron contribution =      -5.33204574 Ry
     hartree contribution      =       2.81219030 Ry
     xc contribution           =      -1.68669426 Ry
     ewald contribution        =       2.35088779 Ry
     Dispersion Correction     =      -0.00000273 Ry

     convergence has been achieved in   6 iterations

     Forces acting on atoms (cartesian axes, Ry/au):

     atom    1 type  1   force =    -2.26542492   -0.00000000    0.00000000
     atom    2 type  1   force =     2.26542492    0.00000000   -0.00000000

     Total force =     2.265425     Total SCF correction =     0.000001
     Energy error            =      5.7E-02 Ry
     Gradient error          =      2.3E+00 Ry/Bohr

     number of scf cycles    =   3
     number of bfgs steps    =   2

     energy             old  =      -1.7981905183 Ry
     energy             new  =      -1.8556646332 Ry

     CASE: energy            _new < energy            _old


     WARNING: bfgs curvature condition failed, Theta= 0.891
     new trust radius        =       0.0264319752 bohr
     new conv_thr            =            1.0E-10 Ry


ATOMIC_POSITIONS (angstrom)
H             0.0000000000        0.0000000000        0.0000000000    0   0   0
H             0.3912914398        0.0000000000        0.0000000000    1   0   0



     Writing config-only to output data dir ./pwscf.save/
     NEW-OLD atomic charge density approx. for the potential

     negative rho (up, down):  5.054E-05 0.000E+00

     total cpu time spent up to now is       33.2 secs

     Self-consistent Calculation

     iteration #  1     ecut=    60.00 Ry     beta= 0.50
     Davidson diagonalization with overlap
     ethr =  1.00E-06,  avg # of iterations =  5.0

     negative rho (up, down):  2.390E-05 0.000E+00

     total cpu time spent up to now is       34.7 secs

     total energy              =      -1.91215648 Ry
     estimated scf accuracy    <       0.00045443 Ry

     iteration #  2     ecut=    60.00 Ry     beta= 0.50
     Davidson diagonalization with overlap
     ethr =  2.27E-05,  avg # of iterations =  1.0

     negative rho (up, down):  5.028E-06 0.000E+00

     total cpu time spent up to now is       35.8 secs

     total energy              =      -1.91215433 Ry
     estimated scf accuracy    <       0.00005441 Ry

     iteration #  3     ecut=    60.00 Ry     beta= 0.50
     Davidson diagonalization with overlap
     ethr =  2.72E-06,  avg # of iterations =  2.0

     negative rho (up, down):  1.465E-06 0.000E+00

     total cpu time spent up to now is       36.8 secs

     total energy              =      -1.91216067 Ry
     estimated scf accuracy    <       0.00000042 Ry

     iteration #  4     ecut=    60.00 Ry     beta= 0.50
     Davidson diagonalization with overlap
     ethr =  2.08E-08,  avg # of iterations =  2.0

     negative rho (up, down):  2.928E-08 0.000E+00

     total cpu time spent up to now is       37.9 secs

     total energy              =      -1.91216070 Ry
     estimated scf accuracy    <       0.00000005 Ry

     iteration #  5     ecut=    60.00 Ry     beta= 0.50
     Davidson diagonalization with overlap
     ethr =  2.55E-09,  avg # of iterations =  4.0

     total cpu time spent up to now is       39.2 secs

     total energy              =      -1.91216070 Ry
     estimated scf accuracy    <          3.6E-10 Ry

     iteration #  6     ecut=    60.00 Ry     beta= 0.50
     Davidson diagonalization with overlap
     ethr =  1.82E-11,  avg # of iterations =  1.0

     total cpu time spent up to now is       40.1 secs

     End of self-consistent calculation

          k = 0.0000 0.0000 0.0000 ( 61161 PWs)   bands (ev):

   -12.6143  -0.0662   0.6967   0.7179   0.7264

     the Fermi energy is    -5.9440 ev

!    total energy              =      -1.91216070 Ry
     estimated scf accuracy    <          2.3E-11 Ry
     smearing contrib. (-TS)   =      -0.00000000 Ry
     internal energy E=F+TS    =      -1.91216070 Ry

     The total energy is F=E-TS. E is the sum of the following terms:
     one-electron contribution =      -5.27285831 Ry
     hartree contribution      =       2.78168062 Ry
     xc contribution           =      -1.67160888 Ry
     ewald contribution        =       2.25062840 Ry
     Dispersion Correction     =      -0.00000254 Ry

     convergence has been achieved in   6 iterations

     Forces acting on atoms (cartesian axes, Ry/au):

     atom    1 type  1   force =    -2.01477053   -0.00000000    0.00000000
     atom    2 type  1   force =     2.01477053    0.00000000   -0.00000000

     Total force =     2.014771     Total SCF correction =     0.000001
     Energy error            =      5.6E-02 Ry
     Gradient error          =      2.0E+00 Ry/Bohr

     number of scf cycles    =   4
     number of bfgs steps    =   3

     energy             old  =      -1.8556646332 Ry
     energy             new  =      -1.9121607004 Ry

     CASE: energy            _new < energy            _old

     new trust radius        =       0.0396479628 bohr
     new conv_thr            =            1.0E-10 Ry


ATOMIC_POSITIONS (angstrom)
H             0.0000000000        0.0000000000        0.0000000000    0   0   0
H             0.4122722381        0.0000000000        0.0000000000    1   0   0



     Writing config-only to output data dir ./pwscf.save/
     NEW-OLD atomic charge density approx. for the potential

     negative rho (up, down):  7.720E-05 0.000E+00

     total cpu time spent up to now is       41.0 secs

     Self-consistent Calculation

     iteration #  1     ecut=    60.00 Ry     beta= 0.50
     Davidson diagonalization with overlap
     ethr =  1.00E-06,  avg # of iterations =  6.0

     negative rho (up, down):  3.669E-05 0.000E+00

     total cpu time spent up to now is       42.7 secs

     total energy              =      -1.98546281 Ry
     estimated scf accuracy    <       0.00099688 Ry

     iteration #  2     ecut=    60.00 Ry     beta= 0.50
     Davidson diagonalization with overlap
     ethr =  4.98E-05,  avg # of iterations =  1.0

     negative rho (up, down):  8.200E-06 0.000E+00

     total cpu time spent up to now is       43.7 secs

     total energy              =      -1.98546400 Ry
     estimated scf accuracy    <       0.00011449 Ry

     iteration #  3     ecut=    60.00 Ry     beta= 0.50
     Davidson diagonalization with overlap
     ethr =  5.72E-06,  avg # of iterations =  2.0

     negative rho (up, down):  2.378E-06 0.000E+00

     total cpu time spent up to now is       44.8 secs

     total energy              =      -1.98547733 Ry
     estimated scf accuracy    <       0.00000091 Ry

     iteration #  4     ecut=    60.00 Ry     beta= 0.50
     Davidson diagonalization with overlap
     ethr =  4.56E-08,  avg # of iterations =  2.0

     negative rho (up, down):  3.981E-08 0.000E+00

     total cpu time spent up to now is       45.9 secs

     total energy              =      -1.98547738 Ry
     estimated scf accuracy    <       0.00000011 Ry

     iteration #  5     ecut=    60.00 Ry     beta= 0.50
     Davidson diagonalization with overlap
     ethr =  5.60E-09,  avg # of iterations =  4.0

     total cpu time spent up to now is       47.2 secs

     total energy              =      -1.98547738 Ry
     estimated scf accuracy    <          5.1E-10 Ry

     iteration #  6     ecut=    60.00 Ry     beta= 0.50
     Davidson diagonalization with overlap
     ethr =  2.55E-11,  avg # of iterations =  1.0

     total cpu time spent up to now is       48.1 secs

     End of self-consistent calculation

          k = 0.0000 0.0000 0.0000 ( 61161 PWs)   bands (ev):

   -12.4412  -0.0672   0.6863   0.7176   0.7214

     the Fermi energy is    -5.8599 ev

!    total energy              =      -1.98547738 Ry
     estimated scf accuracy    <          2.3E-11 Ry
     smearing contrib. (-TS)   =      -0.00000000 Ry
     internal energy E=F+TS    =      -1.98547738 Ry

     The total energy is F=E-TS. E is the sum of the following terms:
     one-electron contribution =      -5.18575717 Ry
     hartree contribution      =       2.73672768 Ry
     xc contribution           =      -1.64944257 Ry
     ewald contribution        =       2.11299700 Ry
     Dispersion Correction     =      -0.00000231 Ry

     convergence has been achieved in   6 iterations

     Forces acting on atoms (cartesian axes, Ry/au):

     atom    1 type  1   force =    -1.69363399   -0.00000000    0.00000000
     atom    2 type  1   force =     1.69363399    0.00000000   -0.00000000

     Total force =     1.693634     Total SCF correction =     0.000001
     Energy error            =      7.3E-02 Ry
     Gradient error          =      1.7E+00 Ry/Bohr

     number of scf cycles    =   5
     number of bfgs steps    =   4

     energy             old  =      -1.9121607004 Ry
     energy             new  =      -1.9854773788 Ry

     CASE: energy            _new < energy            _old

     new trust radius        =       0.0594719442 bohr
     new conv_thr            =            1.0E-10 Ry


ATOMIC_POSITIONS (angstrom)
H             0.0000000000        0.0000000000        0.0000000000    0   0   0
H             0.4437434357        0.0000000000        0.0000000000    1   0   0



     Writing config-only to output data dir ./pwscf.save/
     NEW-OLD atomic charge density approx. for the potential

     negative rho (up, down):  1.166E-04 0.000E+00

     total cpu time spent up to now is       49.0 secs

     Self-consistent Calculation

     iteration #  1     ecut=    60.00 Ry     beta= 0.50
     Davidson diagonalization with overlap
     ethr =  1.00E-06,  avg # of iterations =  6.0

     negative rho (up, down):  5.543E-05 0.000E+00

     total cpu time spent up to now is       50.7 secs

     total energy              =      -2.07424276 Ry
     estimated scf accuracy    <       0.00211737 Ry

     iteration #  2     ecut=    60.00 Ry     beta= 0.50
     Davidson diagonalization with overlap
     ethr =  1.06E-04,  avg # of iterations =  1.0

     negative rho (up, down):  1.275E-05 0.000E+00

     total cpu time spent up to now is       51.8 secs

     total energy              =      -2.07425025 Ry
     estimated scf accuracy    <       0.00023762 Ry

     iteration #  3     ecut=    60.00 Ry     beta= 0.50
     Davidson diagonalization with overlap
     ethr =  1.19E-05,  avg # of iterations =  2.0

     negative rho (up, down):  3.408E-06 0.000E+00

     total cpu time spent up to now is       52.9 secs

     total energy              =      -2.07427816 Ry
     estimated scf accuracy    <       0.00000200 Ry

     iteration #  4     ecut=    60.00 Ry     beta= 0.50
     Davidson diagonalization with overlap
     ethr =  1.00E-07,  avg # of iterations =  4.0

     negative rho (up, down):  7.108E-08 0.000E+00

     total cpu time spent up to now is       54.1 secs

     total energy              =      -2.07427825 Ry
     estimated scf accuracy    <       0.00000021 Ry

     iteration #  5     ecut=    60.00 Ry     beta= 0.50
     Davidson diagonalization with overlap
     ethr =  1.05E-08,  avg # of iterations =  4.0

     total cpu time spent up to now is       55.4 secs

     total energy              =      -2.07427826 Ry
     estimated scf accuracy    <          7.9E-10 Ry

     iteration #  6     ecut=    60.00 Ry     beta= 0.50
     Davidson diagonalization with overlap
     ethr =  3.93E-11,  avg # of iterations =  1.0

     total cpu time spent up to now is       56.3 secs

     End of self-consistent calculation

          k = 0.0000 0.0000 0.0000 ( 61161 PWs)   bands (ev):

   -12.1915  -0.0689   0.6689   0.7138   0.7166

     the Fermi energy is    -5.7375 ev

!    total energy              =      -2.07427826 Ry
     estimated scf accuracy    <          2.5E-11 Ry
     smearing contrib. (-TS)   =      -0.00000000 Ry
     internal energy E=F+TS    =      -2.07427826 Ry

     The total energy is F=E-TS. E is the sum of the following terms:
     one-electron contribution =      -5.05923215 Ry
     hartree contribution      =       2.67133358 Ry
     xc contribution           =      -1.61733476 Ry
     ewald contribution        =       1.93095713 Ry
     Dispersion Correction     =      -0.00000207 Ry

     convergence has been achieved in   6 iterations

     Forces acting on atoms (cartesian axes, Ry/au):

     atom    1 type  1   force =    -1.30983616   -0.00000001    0.00000000
     atom    2 type  1   force =     1.30983616    0.00000001   -0.00000000

     Total force =     1.309836     Total SCF correction =     0.000001
     Energy error            =      8.9E-02 Ry
     Gradient error          =      1.3E+00 Ry/Bohr

     number of scf cycles    =   6
     number of bfgs steps    =   5

     energy             old  =      -1.9854773788 Ry
     energy             new  =      -2.0742782568 Ry

     CASE: energy            _new < energy            _old

     new trust radius        =       0.0892079164 bohr
     new conv_thr            =            1.0E-10 Ry


ATOMIC_POSITIONS (angstrom)
H             0.0000000000        0.0000000000        0.0000000000    0   0   0
H             0.4909502321        0.0000000000        0.0000000000    1   0   0



     Writing config-only to output data dir ./pwscf.save/
     NEW-OLD atomic charge density approx. for the potential

     negative rho (up, down):  1.723E-04 0.000E+00

     total cpu time spent up to now is       57.3 secs

     Self-consistent Calculation

     iteration #  1     ecut=    60.00 Ry     beta= 0.50
     Davidson diagonalization with overlap
     ethr =  1.00E-06,  avg # of iterations =  8.0

     negative rho (up, down):  8.177E-05 0.000E+00

     total cpu time spent up to now is       59.2 secs

     total energy              =      -2.17123610 Ry
     estimated scf accuracy    <       0.00433896 Ry

     iteration #  2     ecut=    60.00 Ry     beta= 0.50
     Davidson diagonalization with overlap
     ethr =  2.17E-04,  avg # of iterations =  1.0

     negative rho (up, down):  1.934E-05 0.000E+00

     total cpu time spent up to now is       60.2 secs

     total energy              =      -2.17126552 Ry
     estimated scf accuracy    <       0.00047413 Ry

     iteration #  3     ecut=    60.00 Ry     beta= 0.50
     Davidson diagonalization with overlap
     ethr =  2.37E-05,  avg # of iterations =  2.0

     negative rho (up, down):  5.903E-06 0.000E+00

     total cpu time spent up to now is       61.5 secs

     total energy              =      -2.17132390 Ry
     estimated scf accuracy    <       0.00000448 Ry

     iteration #  4     ecut=    60.00 Ry     beta= 0.50
     Davidson diagonalization with overlap
     ethr =  2.24E-07,  avg # of iterations =  4.0

     negative rho (up, down):  6.407E-08 0.000E+00

     total cpu time spent up to now is       62.8 secs

     total energy              =      -2.17132408 Ry
     estimated scf accuracy    <       0.00000054 Ry

     iteration #  5     ecut=    60.00 Ry     beta= 0.50
     Davidson diagonalization with overlap
     ethr =  2.71E-08,  avg # of iterations =  4.0

     total cpu time spent up to now is       64.0 secs

     total energy              =      -2.17132410 Ry
     estimated scf accuracy    <          3.0E-09 Ry

     iteration #  6     ecut=    60.00 Ry     beta= 0.50
     Davidson diagonalization with overlap
     ethr =  1.49E-10,  avg # of iterations =  2.0

     total cpu time spent up to now is       65.1 secs

     total energy              =      -2.17132410 Ry
     estimated scf accuracy    <          1.3E-10 Ry

     iteration #  7     ecut=    60.00 Ry     beta= 0.50
     Davidson diagonalization with overlap
     ethr =  6.75E-12,  avg # of iterations =  1.0

     total cpu time spent up to now is       66.0 secs

     End of self-consistent calculation

          k = 0.0000 0.0000 0.0000 ( 61161 PWs)   bands (ev):

   -11.8400  -0.0716   0.6379   0.7014   0.7151

     the Fermi energy is    -5.5625 ev

!    total energy              =      -2.17132410 Ry
     estimated scf accuracy    <          4.3E-12 Ry
     smearing contrib. (-TS)   =      -0.00000000 Ry
     internal energy E=F+TS    =      -2.17132410 Ry

     The total energy is F=E-TS. E is the sum of the following terms:
     one-electron contribution =      -4.87927034 Ry
     hartree contribution      =       2.57818826 Ry
     xc contribution           =      -1.57190696 Ry
     ewald contribution        =       1.70166678 Ry
     Dispersion Correction     =      -0.00000184 Ry

     convergence has been achieved in   7 iterations

     Forces acting on atoms (cartesian axes, Ry/au):

     atom    1 type  1   force =    -0.89192628    0.00000000   -0.00000000
     atom    2 type  1   force =     0.89192628   -0.00000000    0.00000000

     Total force =     0.891926     Total SCF correction =     0.000000
     Energy error            =      9.7E-02 Ry
     Gradient error          =      8.9E-01 Ry/Bohr

     number of scf cycles    =   7
     number of bfgs steps    =   6

     energy             old  =      -2.0742782568 Ry
     energy             new  =      -2.1713240972 Ry

     CASE: energy            _new < energy            _old

     new trust radius        =       0.1338118745 bohr
     new conv_thr            =            1.0E-10 Ry


ATOMIC_POSITIONS (angstrom)
H             0.0000000000        0.0000000000        0.0000000000    0   0   0
H             0.5617604266        0.0000000000        0.0000000000    1   0   0



     Writing config-only to output data dir ./pwscf.save/
     NEW-OLD atomic charge density approx. for the potential

     negative rho (up, down):  2.462E-04 0.000E+00

     total cpu time spent up to now is       67.0 secs

     Self-consistent Calculation

     iteration #  1     ecut=    60.00 Ry     beta= 0.50
     Davidson diagonalization with overlap
     ethr =  1.00E-06,  avg # of iterations =  8.0

     negative rho (up, down):  1.164E-04 0.000E+00

     total cpu time spent up to now is       69.0 secs

     total energy              =      -2.26107975 Ry
     estimated scf accuracy    <       0.00847468 Ry

     iteration #  2     ecut=    60.00 Ry     beta= 0.50
     Davidson diagonalization with overlap
     ethr =  4.24E-04,  avg # of iterations =  1.0

     negative rho (up, down):  2.905E-05 0.000E+00

     total cpu time spent up to now is       70.0 secs

     total energy              =      -2.26119619 Ry
     estimated scf accuracy    <       0.00086637 Ry

     iteration #  3     ecut=    60.00 Ry     beta= 0.50
     Davidson diagonalization with overlap
     ethr =  4.33E-05,  avg # of iterations =  2.0

     negative rho (up, down):  9.135E-06 0.000E+00

     total cpu time spent up to now is       71.1 secs

     total energy              =      -2.26130900 Ry
     estimated scf accuracy    <       0.00001128 Ry

     iteration #  4     ecut=    60.00 Ry     beta= 0.50
     Davidson diagonalization with overlap
     ethr =  5.64E-07,  avg # of iterations =  7.0

     total cpu time spent up to now is       72.8 secs

     total energy              =      -2.26130952 Ry
     estimated scf accuracy    <       0.00000127 Ry

     iteration #  5     ecut=    60.00 Ry     beta= 0.50
     Davidson diagonalization with overlap
     ethr =  6.35E-08,  avg # of iterations =  4.0

     negative rho (up, down):  4.505E-08 0.000E+00

     total cpu time spent up to now is       74.1 secs

     total energy              =      -2.26130958 Ry
     estimated scf accuracy    <       0.00000005 Ry

     iteration #  6     ecut=    60.00 Ry     beta= 0.50
     Davidson diagonalization with overlap
     ethr =  2.54E-09,  avg # of iterations =  2.0

     total cpu time spent up to now is       75.2 secs

     total energy              =      -2.26130958 Ry
     estimated scf accuracy    <       0.00000004 Ry

     iteration #  7     ecut=    60.00 Ry     beta= 0.50
     Davidson diagonalization with overlap
     ethr =  1.86E-09,  avg # of iterations =  1.0

     total cpu time spent up to now is       76.2 secs

     total energy              =      -2.26130958 Ry
     estimated scf accuracy    <          5.7E-10 Ry

     iteration #  8     ecut=    60.00 Ry     beta= 0.50
     Davidson diagonalization with overlap
     ethr =  2.84E-11,  avg # of iterations =  2.0

     total cpu time spent up to now is       77.3 secs

     total energy              =      -2.26130958 Ry
     estimated scf accuracy    <          3.4E-10 Ry

     iteration #  9     ecut=    60.00 Ry     beta= 0.50
     Davidson diagonalization with overlap
     ethr =  1.69E-11,  avg # of iterations =  1.0

     total cpu time spent up to now is       78.3 secs

     End of self-consistent calculation

          k = 0.0000 0.0000 0.0000 ( 61161 PWs)   bands (ev):

   -11.3614  -0.0754   0.5764   0.6828   0.7134

     the Fermi energy is    -5.3240 ev

!    total energy              =      -2.26130958 Ry
     estimated scf accuracy    <          7.0E-11 Ry
     smearing contrib. (-TS)   =      -0.00000000 Ry
     internal energy E=F+TS    =      -2.26130958 Ry

     The total energy is F=E-TS. E is the sum of the following terms:
     one-electron contribution =      -4.63108558 Ry
     hartree contribution      =       2.44959126 Ry
     xc contribution           =      -1.50982177 Ry
     ewald contribution        =       1.43000819 Ry
     Dispersion Correction     =      -0.00000169 Ry

     convergence has been achieved in   9 iterations

     Forces acting on atoms (cartesian axes, Ry/au):

     atom    1 type  1   force =    -0.48688022   -0.00000000    0.00000000
     atom    2 type  1   force =     0.48688022    0.00000000   -0.00000000

     Total force =     0.486880     Total SCF correction =     0.000001
     Energy error            =      9.0E-02 Ry
     Gradient error          =      4.9E-01 Ry/Bohr

     number of scf cycles    =   8
     number of bfgs steps    =   7

     energy             old  =      -2.1713240972 Ry
     energy             new  =      -2.2613095814 Ry

     CASE: energy            _new < energy            _old

     new trust radius        =       0.1608467826 bohr
     new conv_thr            =            1.0E-10 Ry


ATOMIC_POSITIONS (angstrom)
H             0.0000000000        0.0000000000        0.0000000000    0   0   0
H             0.6468768785        0.0000000000        0.0000000000    1   0   0



     Writing config-only to output data dir ./pwscf.save/
     NEW-OLD atomic charge density approx. for the potential

     negative rho (up, down):  2.799E-04 0.000E+00

     total cpu time spent up to now is       79.2 secs

     Self-consistent Calculation

     iteration #  1     ecut=    60.00 Ry     beta= 0.50
     Davidson diagonalization with overlap
     ethr =  1.00E-06,  avg # of iterations =  8.0

     negative rho (up, down):  1.319E-04 0.000E+00

     total cpu time spent up to now is       81.3 secs

     total energy              =      -2.31387281 Ry
     estimated scf accuracy    <       0.01018178 Ry

     iteration #  2     ecut=    60.00 Ry     beta= 0.50
     Davidson diagonalization with overlap
     ethr =  5.09E-04,  avg # of iterations =  1.0

     negative rho (up, down):  3.480E-05 0.000E+00

     total cpu time spent up to now is       82.3 secs

     total energy              =      -2.31409810 Ry
     estimated scf accuracy    <       0.00095447 Ry

     iteration #  3     ecut=    60.00 Ry     beta= 0.50
     Davidson diagonalization with overlap
     ethr =  4.77E-05,  avg # of iterations =  2.0

     negative rho (up, down):  9.810E-06 0.000E+00

     total cpu time spent up to now is       83.4 secs

     total energy              =      -2.31422988 Ry
     estimated scf accuracy    <       0.00001941 Ry

     iteration #  4     ecut=    60.00 Ry     beta= 0.50
     Davidson diagonalization with overlap
     ethr =  9.70E-07,  avg # of iterations =  7.0

     negative rho (up, down):  3.016E-07 0.000E+00

     total cpu time spent up to now is       85.2 secs

     total energy              =      -2.31423101 Ry
     estimated scf accuracy    <       0.00000129 Ry

     iteration #  5     ecut=    60.00 Ry     beta= 0.50
     Davidson diagonalization with overlap
     ethr =  6.45E-08,  avg # of iterations =  4.0

     negative rho (up, down):  4.681E-08 0.000E+00

     total cpu time spent up to now is       86.5 secs

     total energy              =      -2.31423106 Ry
     estimated scf accuracy    <       0.00000023 Ry

     iteration #  6     ecut=    60.00 Ry     beta= 0.50
     Davidson diagonalization with overlap
     ethr =  1.16E-08,  avg # of iterations =  2.0

     total cpu time spent up to now is       87.6 secs

     total energy              =      -2.31423108 Ry
     estimated scf accuracy    <       0.00000007 Ry

     iteration #  7     ecut=    60.00 Ry     beta= 0.50
     Davidson diagonalization with overlap
     ethr =  3.50E-09,  avg # of iterations =  1.0

     total cpu time spent up to now is       88.6 secs

     total energy              =      -2.31423109 Ry
     estimated scf accuracy    <          4.8E-09 Ry

     iteration #  8     ecut=    60.00 Ry     beta= 0.50
     Davidson diagonalization with overlap
     ethr =  2.42E-10,  avg # of iterations =  2.0

     total cpu time spent up to now is       89.7 secs

     total energy              =      -2.31423109 Ry
     estimated scf accuracy    <          1.5E-10 Ry

     iteration #  9     ecut=    60.00 Ry     beta= 0.50
     Davidson diagonalization with overlap
     ethr =  7.52E-12,  avg # of iterations =  2.0

     total cpu time spent up to now is       90.7 secs

     End of self-consistent calculation

          k = 0.0000 0.0000 0.0000 ( 61161 PWs)   bands (ev):

   -10.8530  -0.0789   0.4677   0.6609   0.7130

     the Fermi energy is    -5.0700 ev

!    total energy              =      -2.31423109 Ry
     estimated scf accuracy    <          1.7E-11 Ry
     smearing contrib. (-TS)   =      -0.00000000 Ry
     internal energy E=F+TS    =      -2.31423109 Ry

     The total energy is F=E-TS. E is the sum of the following terms:
     one-electron contribution =      -4.36361250 Ry
     hartree contribution      =       2.31091137 Ry
     xc contribution           =      -1.44373843 Ry
     ewald contribution        =       1.18221016 Ry
     Dispersion Correction     =      -0.00000169 Ry

     convergence has been achieved in   9 iterations

     Forces acting on atoms (cartesian axes, Ry/au):

     atom    1 type  1   force =    -0.19717107    0.00000000    0.00000000
     atom    2 type  1   force =     0.19717107   -0.00000000   -0.00000000

     Total force =     0.197171     Total SCF correction =     0.000001
     Energy error            =      5.3E-02 Ry
     Gradient error          =      2.0E-01 Ry/Bohr

     number of scf cycles    =   9
     number of bfgs steps    =   8

     energy             old  =      -2.2613095814 Ry
     energy             new  =      -2.3142310863 Ry

     CASE: energy            _new < energy            _old

     new trust radius        =       0.1094695587 bohr
     new conv_thr            =            1.0E-10 Ry


ATOMIC_POSITIONS (angstrom)
H             0.0000000000        0.0000000000        0.0000000000    0   0   0
H             0.7048056742        0.0000000000        0.0000000000    1   0   0



     Writing config-only to output data dir ./pwscf.save/
     NEW-OLD atomic charge density approx. for the potential

     negative rho (up, down):  1.989E-04 0.000E+00

     total cpu time spent up to now is       91.6 secs

     Self-consistent Calculation

     iteration #  1     ecut=    60.00 Ry     beta= 0.50
     Davidson diagonalization with overlap
     ethr =  1.00E-06,  avg # of iterations =  8.0

     negative rho (up, down):  9.382E-05 0.000E+00

     total cpu time spent up to now is       93.6 secs

     total energy              =      -2.32839065 Ry
     estimated scf accuracy    <       0.00397279 Ry

     iteration #  2     ecut=    60.00 Ry     beta= 0.50
     Davidson diagonalization with overlap
     ethr =  1.99E-04,  avg # of iterations =  1.0

     negative rho (up, down):  2.541E-05 0.000E+00

     total cpu time spent up to now is       94.7 secs

     total energy              =      -2.32849615 Ry
     estimated scf accuracy    <       0.00035305 Ry

     iteration #  3     ecut=    60.00 Ry     beta= 0.50
     Davidson diagonalization with overlap
     ethr =  1.77E-05,  avg # of iterations =  2.0

     negative rho (up, down):  3.401E-06 0.000E+00

     total cpu time spent up to now is       95.8 secs

     total energy              =      -2.32854456 Ry
     estimated scf accuracy    <       0.00000925 Ry

     iteration #  4     ecut=    60.00 Ry     beta= 0.50
     Davidson diagonalization with overlap
     ethr =  4.63E-07,  avg # of iterations =  6.0

     negative rho (up, down):  4.513E-07 0.000E+00

     total cpu time spent up to now is       97.3 secs

     total energy              =      -2.32854530 Ry
     estimated scf accuracy    <       0.00000025 Ry

     iteration #  5     ecut=    60.00 Ry     beta= 0.50
     Davidson diagonalization with overlap
     ethr =  1.24E-08,  avg # of iterations =  2.0

     total cpu time spent up to now is       98.4 secs

     total energy              =      -2.32854525 Ry
     estimated scf accuracy    <       0.00000011 Ry

     iteration #  6     ecut=    60.00 Ry     beta= 0.50
     Davidson diagonalization with overlap
     ethr =  5.49E-09,  avg # of iterations =  2.0

     total cpu time spent up to now is       99.5 secs

     total energy              =      -2.32854527 Ry
     estimated scf accuracy    <       0.00000001 Ry

     iteration #  7     ecut=    60.00 Ry     beta= 0.50
     Davidson diagonalization with overlap
     ethr =  7.20E-10,  avg # of iterations =  1.0

     total cpu time spent up to now is      100.5 secs

     total energy              =      -2.32854527 Ry
     estimated scf accuracy    <          1.4E-09 Ry

     iteration #  8     ecut=    60.00 Ry     beta= 0.50
     Davidson diagonalization with overlap
     ethr =  7.01E-11,  avg # of iterations =  2.0

     total cpu time spent up to now is      101.5 secs

     End of self-consistent calculation

          k = 0.0000 0.0000 0.0000 ( 61161 PWs)   bands (ev):

   -10.5428  -0.0811   0.3613   0.6457   0.7135

     the Fermi energy is    -4.9147 ev

!    total energy              =      -2.32854527 Ry
     estimated scf accuracy    <          9.8E-12 Ry
     smearing contrib. (-TS)   =      -0.00000000 Ry
     internal energy E=F+TS    =      -2.32854527 Ry

     The total energy is F=E-TS. E is the sum of the following terms:
     one-electron contribution =      -4.19809064 Ry
     hartree contribution      =       2.22503881 Ry
     xc contribution           =      -1.40330467 Ry
     ewald contribution        =       1.04781302 Ry
     Dispersion Correction     =      -0.00000179 Ry

     convergence has been achieved in   8 iterations

     Forces acting on atoms (cartesian axes, Ry/au):

     atom    1 type  1   force =    -0.07177689   -0.00000000   -0.00000000
     atom    2 type  1   force =     0.07177689    0.00000000    0.00000000

     Total force =     0.071777     Total SCF correction =     0.000001
     Energy error            =      1.4E-02 Ry
     Gradient error          =      7.2E-02 Ry/Bohr

     number of scf cycles    =  10
     number of bfgs steps    =   9

     energy             old  =      -2.3142310863 Ry
     energy             new  =      -2.3285452716 Ry

     CASE: energy            _new < energy            _old

     new trust radius        =       0.0626614793 bohr
     new conv_thr            =            7.2E-11 Ry


ATOMIC_POSITIONS (angstrom)
H             0.0000000000        0.0000000000        0.0000000000    0   0   0
H             0.7379647011        0.0000000000        0.0000000000    1   0   0



     Writing config-only to output data dir ./pwscf.save/
     NEW-OLD atomic charge density approx. for the potential

     negative rho (up, down):  1.142E-04 0.000E+00

     total cpu time spent up to now is      102.5 secs

     Self-consistent Calculation

     iteration #  1     ecut=    60.00 Ry     beta= 0.50
     Davidson diagonalization with overlap
     ethr =  1.00E-06,  avg # of iterations =  6.0

     negative rho (up, down):  5.402E-05 0.000E+00

     total cpu time spent up to now is      104.2 secs

     total energy              =      -2.33124962 Ry
     estimated scf accuracy    <       0.00116389 Ry

     iteration #  2     ecut=    60.00 Ry     beta= 0.50
     Davidson diagonalization with overlap
     ethr =  5.82E-05,  avg # of iterations =  1.0

     negative rho (up, down):  1.471E-05 0.000E+00

     total cpu time spent up to now is      105.2 secs

     total energy              =      -2.33128066 Ry
     estimated scf accuracy    <       0.00010333 Ry

     iteration #  3     ecut=    60.00 Ry     beta= 0.50
     Davidson diagonalization with overlap
     ethr =  5.17E-06,  avg # of iterations =  2.0

     negative rho (up, down):  1.151E-06 0.000E+00

     total cpu time spent up to now is      106.3 secs

     total energy              =      -2.33129487 Ry
     estimated scf accuracy    <       0.00000269 Ry

     iteration #  4     ecut=    60.00 Ry     beta= 0.50
     Davidson diagonalization with overlap
     ethr =  1.35E-07,  avg # of iterations =  5.0

     negative rho (up, down):  4.523E-07 0.000E+00

     total cpu time spent up to now is      107.7 secs

     total energy              =      -2.33129507 Ry
     estimated scf accuracy    <       0.00000012 Ry

     iteration #  5     ecut=    60.00 Ry     beta= 0.50
     Davidson diagonalization with overlap
     ethr =  6.21E-09,  avg # of iterations =  1.0

     total cpu time spent up to now is      108.7 secs

     total energy              =      -2.33129506 Ry
     estimated scf accuracy    <       0.00000002 Ry

     iteration #  6     ecut=    60.00 Ry     beta= 0.50
     Davidson diagonalization with overlap
     ethr =  1.04E-09,  avg # of iterations =  2.0

     total cpu time spent up to now is      109.8 secs

     total energy              =      -2.33129506 Ry
     estimated scf accuracy    <          2.2E-09 Ry

     iteration #  7     ecut=    60.00 Ry     beta= 0.50
     Davidson diagonalization with overlap
     ethr =  1.10E-10,  avg # of iterations =  1.0

     total cpu time spent up to now is      110.7 secs

     End of self-consistent calculation

          k = 0.0000 0.0000 0.0000 ( 61161 PWs)   bands (ev):

   -10.3769  -0.0826   0.2854   0.6367   0.7137

     the Fermi energy is    -4.8316 ev

!    total energy              =      -2.33129506 Ry
     estimated scf accuracy    <          3.9E-11 Ry
     smearing contrib. (-TS)   =      -0.00000000 Ry
     internal energy E=F+TS    =      -2.33129506 Ry

     The total energy is F=E-TS. E is the sum of the following terms:
     one-electron contribution =      -4.10868872 Ry
     hartree contribution      =       2.17863412 Ry
     xc contribution           =      -1.38162523 Ry
     ewald contribution        =       0.98038665 Ry
     Dispersion Correction     =      -0.00000188 Ry

     convergence has been achieved in   7 iterations

     Forces acting on atoms (cartesian axes, Ry/au):

     atom    1 type  1   force =    -0.01783387    0.00000000   -0.00000000
     atom    2 type  1   force =     0.01783387   -0.00000000    0.00000000

     Total force =     0.017834     Total SCF correction =     0.000001
     Energy error            =      2.7E-03 Ry
     Gradient error          =      1.8E-02 Ry/Bohr

     number of scf cycles    =  11
     number of bfgs steps    =  10

     energy             old  =      -2.3285452716 Ry
     energy             new  =      -2.3312950649 Ry

     CASE: energy            _new < energy            _old

     new trust radius        =       0.0207162368 bohr
     new conv_thr            =            1.8E-11 Ry


ATOMIC_POSITIONS (angstrom)
H             0.0000000000        0.0000000000        0.0000000000    0   0   0
H             0.7489272615        0.0000000000        0.0000000000    1   0   0



     Writing config-only to output data dir ./pwscf.save/
     NEW-OLD atomic charge density approx. for the potential

     negative rho (up, down):  3.539E-05 0.000E+00

     total cpu time spent up to now is      111.6 secs

     Self-consistent Calculation

     iteration #  1     ecut=    60.00 Ry     beta= 0.50
     Davidson diagonalization with overlap
     ethr =  1.00E-06,  avg # of iterations =  3.0

     negative rho (up, down):  1.660E-05 0.000E+00

     total cpu time spent up to now is      112.9 secs

     total energy              =      -2.33149949 Ry
     estimated scf accuracy    <       0.00011589 Ry

     iteration #  2     ecut=    60.00 Ry     beta= 0.50
     Davidson diagonalization with overlap
     ethr =  5.79E-06,  avg # of iterations =  1.0

     negative rho (up, down):  3.947E-06 0.000E+00

     total cpu time spent up to now is      114.0 secs

     total energy              =      -2.33150063 Ry
     estimated scf accuracy    <       0.00001167 Ry

     iteration #  3     ecut=    60.00 Ry     beta= 0.50
     Davidson diagonalization with overlap
     ethr =  5.84E-07,  avg # of iterations =  2.0

     negative rho (up, down):  7.342E-07 0.000E+00

     total cpu time spent up to now is      115.0 secs

     total energy              =      -2.33150229 Ry
     estimated scf accuracy    <       0.00000032 Ry

     iteration #  4     ecut=    60.00 Ry     beta= 0.50
     Davidson diagonalization with overlap
     ethr =  1.60E-08,  avg # of iterations =  1.0

     negative rho (up, down):  4.860E-08 0.000E+00

     total cpu time spent up to now is      116.0 secs

     total energy              =      -2.33150232 Ry
     estimated scf accuracy    <       0.00000003 Ry

     iteration #  5     ecut=    60.00 Ry     beta= 0.50
     Davidson diagonalization with overlap
     ethr =  1.38E-09,  avg # of iterations =  1.0

     total cpu time spent up to now is      117.0 secs

     total energy              =      -2.33150231 Ry
     estimated scf accuracy    <          3.9E-09 Ry

     iteration #  6     ecut=    60.00 Ry     beta= 0.50
     Davidson diagonalization with overlap
     ethr =  1.95E-10,  avg # of iterations =  1.0

     total cpu time spent up to now is      118.0 secs

     total energy              =      -2.33150231 Ry
     estimated scf accuracy    <          6.1E-11 Ry

     iteration #  7     ecut=    60.00 Ry     beta= 0.50
     Davidson diagonalization with overlap
     ethr =  3.05E-12,  avg # of iterations =  2.0

     total cpu time spent up to now is      119.0 secs

     End of self-consistent calculation

          k = 0.0000 0.0000 0.0000 ( 61161 PWs)   bands (ev):

   -10.3238  -0.0831   0.2578   0.6338   0.7137

     the Fermi energy is    -4.8051 ev

!    total energy              =      -2.33150231 Ry
     estimated scf accuracy    <          1.3E-11 Ry
     smearing contrib. (-TS)   =      -0.00000000 Ry
     internal energy E=F+TS    =      -2.33150231 Ry

     The total energy is F=E-TS. E is the sum of the following terms:
     one-electron contribution =      -4.07993893 Ry
     hartree contribution      =       2.16370824 Ry
     xc contribution           =      -1.37467947 Ry
     ewald contribution        =       0.95940975 Ry
     Dispersion Correction     =      -0.00000191 Ry

     convergence has been achieved in   7 iterations

     Forces acting on atoms (cartesian axes, Ry/au):

     atom    1 type  1   force =    -0.00233410    0.00000000   -0.00000000
     atom    2 type  1   force =     0.00233410   -0.00000000    0.00000000

     Total force =     0.002334     Total SCF correction =     0.000001
     Energy error            =      2.1E-04 Ry
     Gradient error          =      2.3E-03 Ry/Bohr

     number of scf cycles    =  12
     number of bfgs steps    =  11

     energy             old  =      -2.3312950649 Ry
     energy             new  =      -2.3315023133 Ry

     CASE: energy            _new < energy            _old

     new trust radius        =       0.0031196445 bohr
     new conv_thr            =            2.1E-12 Ry


ATOMIC_POSITIONS (angstrom)
H             0.0000000000        0.0000000000        0.0000000000    0   0   0
H             0.7505781062        0.0000000000        0.0000000000    1   0   0



     Writing config-only to output data dir ./pwscf.save/
     NEW-OLD atomic charge density approx. for the potential

     negative rho (up, down):  4.369E-06 0.000E+00

     total cpu time spent up to now is      119.9 secs

     Self-consistent Calculation

     iteration #  1     ecut=    60.00 Ry     beta= 0.50
     Davidson diagonalization with overlap
     ethr =  1.00E-06,  avg # of iterations =  2.0

     negative rho (up, down):  1.941E-06 0.000E+00

     total cpu time spent up to now is      121.0 secs

     total energy              =      -2.33150608 Ry
     estimated scf accuracy    <       0.00000240 Ry

     iteration #  2     ecut=    60.00 Ry     beta= 0.50
     Davidson diagonalization with overlap
     ethr =  1.20E-07,  avg # of iterations =  1.0

     negative rho (up, down):  2.624E-07 0.000E+00

     total cpu time spent up to now is      122.0 secs

     total energy              =      -2.33150606 Ry
     estimated scf accuracy    <       0.00000034 Ry

     iteration #  3     ecut=    60.00 Ry     beta= 0.50
     Davidson diagonalization with overlap
     ethr =  1.68E-08,  avg # of iterations =  2.0

     negative rho (up, down):  1.897E-07 0.000E+00

     total cpu time spent up to now is      123.1 secs

     total energy              =      -2.33150612 Ry
     estimated scf accuracy    <       0.00000002 Ry

     iteration #  4     ecut=    60.00 Ry     beta= 0.50
     Davidson diagonalization with overlap
     ethr =  8.36E-10,  avg # of iterations =  1.0

     total cpu time spent up to now is      124.1 secs

     total energy              =      -2.33150612 Ry
     estimated scf accuracy    <          1.7E-09 Ry

     iteration #  5     ecut=    60.00 Ry     beta= 0.50
     Davidson diagonalization with overlap
     ethr =  8.55E-11,  avg # of iterations =  2.0

     total cpu time spent up to now is      125.1 secs

     total energy              =      -2.33150612 Ry
     estimated scf accuracy    <          5.0E-10 Ry

     iteration #  6     ecut=    60.00 Ry     beta= 0.50
     Davidson diagonalization with overlap
     ethr =  2.52E-11,  avg # of iterations =  1.0

     total cpu time spent up to now is      126.2 secs

     total energy              =      -2.33150612 Ry
     estimated scf accuracy    <          1.5E-10 Ry

     iteration #  7     ecut=    60.00 Ry     beta= 0.50
     Davidson diagonalization with overlap
     ethr =  7.37E-12,  avg # of iterations =  2.0

     total cpu time spent up to now is      127.1 secs

     End of self-consistent calculation

          k = 0.0000 0.0000 0.0000 ( 61161 PWs)   bands (ev):

   -10.3159  -0.0832   0.2534   0.6332   0.7136

     the Fermi energy is    -4.8011 ev

!    total energy              =      -2.33150612 Ry
     estimated scf accuracy    <          4.7E-13 Ry
     smearing contrib. (-TS)   =      -0.00000000 Ry
     internal energy E=F+TS    =      -2.33150612 Ry

     The total energy is F=E-TS. E is the sum of the following terms:
     one-electron contribution =      -4.07564268 Ry
     hartree contribution      =       2.16147658 Ry
     xc contribution           =      -1.37364211 Ry
     ewald contribution        =       0.95630400 Ry
     Dispersion Correction     =      -0.00000192 Ry

     convergence has been achieved in   7 iterations

     Forces acting on atoms (cartesian axes, Ry/au):

     atom    1 type  1   force =    -0.00009293    0.00000000   -0.00000000
     atom    2 type  1   force =     0.00009293   -0.00000000    0.00000000

     Total force =     0.000093     Total SCF correction =     0.000000
     Energy error            =      3.8E-06 Ry
     Gradient error          =      9.3E-05 Ry/Bohr

     bfgs converged in  13 scf cycles and  12 bfgs steps
     (criteria: energy <  1.0E-04 Ry, force <  1.0E-03 Ry/Bohr)

     End of BFGS Geometry Optimization

     Final energy             =      -2.3315061233 Ry

     File ./pwscf.bfgs deleted, as requested
Begin final coordinates

ATOMIC_POSITIONS (angstrom)
H             0.0000000000        0.0000000000        0.0000000000    0   0   0
H             0.7505781062        0.0000000000        0.0000000000    1   0   0
End final coordinates



     Writing all to output data dir ./pwscf.save/

     init_run     :      1.83s CPU      1.91s WALL (       1 calls)
     electrons    :    202.60s CPU    114.84s WALL (      13 calls)
     update_pot   :      6.62s CPU      7.54s WALL (      12 calls)
     forces       :      2.29s CPU      2.32s WALL (      13 calls)
     force_london :      0.01s CPU      0.01s WALL (      13 calls)

     Called by init_run:
     wfcinit      :      0.50s CPU      0.47s WALL (       1 calls)
     potinit      :      0.48s CPU      0.56s WALL (       1 calls)
     hinit0       :      0.70s CPU      0.74s WALL (       1 calls)

     Called by electrons:
     c_bands      :    120.59s CPU     51.25s WALL (      94 calls)
     sum_band     :     39.16s CPU     16.99s WALL (      94 calls)
     v_of_rho     :     39.97s CPU     43.70s WALL (     107 calls)
     mix_rho      :      6.49s CPU      6.80s WALL (      94 calls)
     energy_londo :      0.01s CPU      0.01s WALL (      13 calls)

     Called by c_bands:
     regterg      :    120.54s CPU     51.23s WALL (      94 calls)

     Called by *egterg:
     rdiaghg      :      0.05s CPU      0.02s WALL (     352 calls)
     h_psi        :    111.44s CPU     49.36s WALL (     365 calls)
     g_psi        :      1.65s CPU      0.34s WALL (     270 calls)

     Called by h_psi:
     vloc_psi     :    110.82s CPU     49.19s WALL (     365 calls)

     General routines
     fft          :     27.09s CPU     27.05s WALL (     881 calls)
     ffts         :      2.99s CPU      2.99s WALL (      94 calls)
     fftw         :    126.85s CPU     52.96s WALL (    1956 calls)

     Parallel routines

     PWSCF        :   3m34.01s CPU   2m 7.49s WALL


   This run was terminated on:  15: 5:57   5Sep2022            

=------------------------------------------------------------------------------=
   JOB DONE.
=------------------------------------------------------------------------------=
