86
Lattice="8.56715961 0.0 0.0 0.0 9.64586781081 0.0 -3.06942481075 0.0 9.85116265655" Properties=species:S:1:pos:R:3:CS:R:1 ENERGY=-1066.19891881 Natoms=86 NAME=frm_0001
C	-0.463620409455	0.0515828680118	9.4145630685	100.01
C	5.9613552087	4.87451677342	0.436599588045	100.01
C	3.8455066655	9.29786978746	0.403136262608	119.21
C	1.65222813375	4.47493588205	9.44801782678	119.21
C	3.54177515585	9.61467478267	1.87096485291	100.72
C	1.9559596434	4.79174087727	7.98019780364	100.72
C	2.99706658069	1.38297944152	2.05859421553	135.03
C	2.50066821856	6.20591334693	7.79256844102	135.03
C	1.88558899436	1.65044616455	1.03003816707	105.33
C	3.61214580489	6.47338006995	8.82111592232	105.33
C	0.771361349806	0.569244920286	1.08684700244	147.62
C	4.72637344944	5.39217882569	8.7643156541	147.62
C	1.2763354387	9.12164331428	0.116042176917	146.57
C	4.22139936055	4.29871797603	9.73511191247	146.57
C	-1.41456655901	2.09508174831	8.47126739249	128.86
C	6.91230135825	6.91801565371	1.37989526406	128.86
C	4.56033332904	8.83648540666	3.90352347038	-2.41
C	0.937401470207	4.01355150125	5.94763061901	-2.41
C	5.86476905126	8.65630090574	4.59569856391	38.21
C	-0.367042819171	3.83336700033	5.25545552548	38.21
C	7.05602402787	9.14987210519	4.04829990063	34.73
C	-1.55828922862	4.32693819979	5.80286275592	34.73
C	-0.30138410792	8.94721594462	4.70297653655	39.04
C	5.79911890717	4.12428203921	5.14817755284	39.04
C	-0.271270541891	8.24893246629	5.90950675874	31.55
C	5.76900534114	3.42599856088	3.94165589781	31.55
C	-1.45587740264	7.76570182848	6.47142675756	36.16
C	6.95361220189	2.94276792308	3.37973589899	36.16
C	5.89890061515	7.97105664434	5.81845498641	37.96
C	-0.401174383057	3.14812273893	4.03269910298	37.96
C	1.98433407603	0.374710427022	9.67126943906	-10.69
C	3.51340072322	5.19764433243	0.179893217491	-10.69
C	3.23870331749	0.602356992179	7.65573376773	118.48
C	2.25903148176	5.42529089759	2.19542888882	118.48
N	-0.593952608602	1.51678134031	9.53117067796	164.37
N	6.09168740785	6.33971524572	0.319991978593	164.37
O	4.72603933022	9.396554899	2.67861669082	79.15
O	0.77169546903	4.5736209936	7.17253739857	79.15
O	3.47395752038	8.51496847366	4.36798346148	-59.63
O	2.02376871171	3.69203456825	5.48317919507	-59.63
O	5.78436625832	1.17596259671	0.374444845074	-104.20
O	-0.286631459072	5.99889650211	9.47671781147	-104.20
O	2.16002938531	9.62696865671	8.38462770735	110.81
O	3.33770541394	4.80403475131	1.4665349492	110.81
H	-0.286383011443	9.41858106636	8.37181123657	26.92
H	5.78410924353	4.59564716095	1.47935141998	26.92
H	4.03526925086	8.21759379643	0.290289636225	26.97
H	1.46246554838	3.39465989103	9.56087302032	26.97
H	2.79087218319	8.89223191424	2.21959684608	25.00
H	2.70686261606	4.06929800883	7.63156581047	25.00
H	1.49885027525	2.66831896497	1.16501376673	27.19
H	3.998884524	7.49124430322	8.68614888982	27.19
H	2.61726726085	1.49959561813	3.08523978739	28.30
H	2.88046753839	6.32252952354	6.765914302	28.30
H	3.80437573221	2.10738418951	1.90445387982	27.84
H	1.69335906703	6.93031809491	7.94670877672	27.84
H	0.622849637966	0.189042943954	2.1048397431	28.63
H	4.87488516128	5.01197684936	7.74632291345	28.63
H	-0.188982973837	0.981556610837	0.753824374084	27.67
H	5.68670920593	5.80449051624	9.09732971531	27.67
H	1.41168799338	8.1396926141	0.583791957304	28.43
H	4.08604680587	3.31675870869	9.26737069924	28.43
H	-2.49405437134	8.97281461753	9.13533363534	28.74
H	7.99178917059	4.14988071213	0.715829021214	28.74
H	-0.949438329459	1.8825904885	7.50059107435	30.48
H	6.44717312871	6.70552439391	2.35056301504	30.48
H	-1.45496071657	3.18461883887	8.59328944681	28.94
H	6.95269551581	8.00755274427	1.25786464258	28.94
H	-2.45551072026	1.71657606958	8.43461708367	29.40
H	7.95324551951	6.53950997498	1.41653700572	29.40
H	7.01856840606	0.0458942740308	3.10690613405	22.47
H	-1.52083360681	4.86882817944	6.7442565225	22.47
H	0.626747695589	9.32936266618	4.28194347751	23.07
H	4.87098710366	4.50642876078	5.56921061187	23.07
H	0.680472353503	8.0870045825	6.41221055034	22.57
H	4.81726244575	3.26407067709	3.43895210621	22.57
H	-1.41762503499	7.2206591341	7.41464532915	22.33
H	6.91535983423	2.39772522869	2.4365173274	22.33
H	4.96572275463	7.5904948473	6.23220595977	22.59
H	0.532012044621	2.76756950905	3.61894812962	22.59
H	3.25674575562	0.111604388239	6.67839219942	26.47
H	2.24098904362	4.93453829365	3.17276188997	26.47
H	4.19014636229	0.451626386001	8.17910154831	27.16
H	1.30758843696	5.27456029141	1.67205254108	27.16
H	3.05620568347	1.67694438922	7.53409723559	27.27
H	2.44152911578	6.49987829463	2.31706542096	27.27
172
Lattice="14.879589076 0.0 0.0 0.0 11.2741604858 0.0 0.0 0.0 9.68665712724" Properties=species:S:1:pos:R:3:CS:R:1 ENERGY=-2132.38485781 Natoms=172 NAME=frm_0002
C	12.4540523811	6.77711715891	8.25945158184	100.04
C	9.86533123287	4.49705820644	3.41611557842	100.04
C	2.42553669487	1.14002947624	6.27054154882	100.04
C	5.01425784313	10.1341458891	1.4272055454	100.04
C	11.7315441744	5.46257986199	8.65572479811	119.65
C	10.5878394396	5.81158062377	3.81240367429	119.65
C	3.14804490163	11.0996675447	5.87425345296	119.65
C	4.29174963637	0.174507820683	1.03093232913	119.65
C	12.6707289573	4.29146692418	8.34974092835	102.98
C	9.64865465674	6.98270844117	3.50641980453	102.98
C	2.20886011874	9.92855460685	6.18023732272	102.98
C	5.23093441926	1.3456207585	1.33691619889	102.98
C	13.2707632663	4.3801046363	6.94772652726	134.58
C	9.04862034766	6.89405584946	2.10440540343	134.58
C	1.60882580966	10.017192319	7.58225172381	134.58
C	5.83096872834	1.25696816678	2.73893059999	134.58
C	13.8068153424	5.79786164264	6.69523478023	106.13
C	8.51256827161	5.47629884312	1.85189877681	106.13
C	1.07277373361	0.160773959966	7.83475835043	106.13
C	6.36702080439	11.1133865258	2.99143722661	106.13
C	14.7954301202	6.24377316807	7.80909105928	145.83
C	7.52395349381	5.03040219728	2.96575505586	145.83
C	0.0841589558139	0.606685485396	6.72090207138	145.83
C	7.35563558219	10.6674750004	1.87756606797	145.83
C	13.8768386886	6.89438320042	8.87284776191	147.40
C	8.44254492542	4.37979216493	4.02951175849	147.40
C	1.00275038742	1.25729551774	5.65714536875	147.40
C	6.43704415058	10.016864968	0.813809365334	147.40
C	12.924425951	8.04151024064	6.22606645707	129.48
C	9.394957663	3.23266512471	1.38273045365	129.48
C	1.955163125	2.40442255797	8.30392667359	129.48
C	5.484631413	8.86973792779	3.46059067017	129.48
C	12.5387023634	2.08025583036	9.29703508729	-1.62
C	9.78068125061	9.19391953499	4.45369908387	-1.62
C	2.34088671261	7.71732863345	5.23295804337	-1.62
C	5.09890782539	3.55683185232	0.389622039955	-1.62
C	11.7118733576	0.843479265951	9.32299997023	37.96
C	10.6075102564	10.4306812198	4.4796788464	37.96
C	3.16771571839	6.48056694863	5.20697828084	37.96
C	4.27207881961	4.79359353714	0.363657157017	37.96
C	10.4559765212	0.777265094563	8.70290797507	35.64
C	11.8634070928	10.4969102708	3.85957197166	35.64
C	4.42361255476	6.41433789765	5.82708515559	35.64
C	3.01618198324	4.85982258811	0.983749152171	35.64
C	9.71513666073	10.8757743678	8.76409284535	38.49
C	12.6042469533	0.398386117921	3.92075684194	38.49
C	5.16445241527	5.23868668517	5.76590028531	38.49
C	2.27534212273	6.0354738006	0.92256428189	38.49
C	10.2128886745	9.76429882304	9.44539946996	31.94
C	12.1064949395	1.50986166272	4.60206346655	31.94
C	4.66670040149	4.12722601996	5.08459366069	31.94
C	2.77309413651	7.1469493454	0.241257657278	31.94
C	11.4593369718	9.82612351565	0.385753346795	36.53
C	10.8600466422	1.4480518497	5.22907447062	36.53
C	3.42025210419	4.18903583298	4.45758265662	36.53
C	4.01954243381	7.08513953237	9.30090378045	36.53
C	12.2066940923	10.9983077839	0.317456032936	36.24
C	10.1126895217	0.275867581469	5.16077715676	36.24
C	2.67289498367	5.36122010121	4.52587997048	36.24
C	4.76689955433	5.91294038456	9.36920109431	36.24
C	10.4008922825	5.41215293461	7.9232026279	-10.51
C	11.9184913315	5.86200755115	3.07988150407	-10.51
C	4.47869679352	11.0492406173	6.60679050276	-10.51
C	2.96109774448	0.224934748062	1.76345449934	-10.51
C	8.32510032884	6.53492208752	7.70844551877	117.05
C	13.9942832852	4.73923839824	2.86510951535	117.05
C	6.55448874716	0.897834404846	6.82154761189	117.05
C	0.885305790844	10.3763260809	1.97821160848	117.05
N	12.659658543	6.72570817865	6.79960021801	165.18
N	9.65972507102	4.54845230711	1.95627909418	165.18
N	2.21993053302	1.08863537557	7.73037803307	165.18
N	5.21986400498	10.1855399898	2.88705690924	165.18
O	11.9727720725	3.0309425356	8.51358008367	80.88
O	10.3466115415	8.24321795016	3.67025895984	80.88
O	2.90681700353	8.66803021828	6.0163981674	80.87
O	4.53297753447	2.60614514707	1.17307704357	80.87
O	13.5936801085	2.21946926575	0.215977235438	-59.28
O	8.72570350554	9.05469122001	5.05931323885	-59.28
O	1.28590896754	7.85655694843	4.62734388839	-59.28
O	6.15388557046	3.41760353733	9.47067989181	-59.28
O	10.0349287892	4.60361094381	7.09016883348	-107.50
O	12.2844548248	6.67054954195	2.24684770965	-107.50
O	4.84466028684	10.2406986265	7.43980941759	-107.50
O	2.59513425116	1.03347673886	2.59648829376	-107.50
O	9.61636594845	6.44176098032	8.33972696491	110.75
O	12.7030176656	4.83241438503	3.49639096149	110.75
O	5.26322312755	0.804673297641	6.19026616575	110.75
O	2.17657141045	10.4694871881	1.34693016234	110.75
H	11.8135604694	7.62625066871	8.51866890313	26.98
H	10.5058231446	3.64790981705	3.67533289972	26.98
H	3.06602860664	1.98916298604	6.01132422753	26.98
H	4.37376593136	9.28499749973	1.16798822411	26.98
H	11.5060737611	5.48533075369	0.0469153443566	27.09
H	10.8133098529	5.78884461166	4.89025134777	27.09
H	3.3735153149	11.1224035568	4.79640577947	27.09
H	4.0662792231	0.151756928986	9.63974178289	27.09
H	13.4772770831	4.3057364501	9.09398821476	25.19
H	8.84210653088	6.96843891525	4.25065221134	25.19
H	1.40231199288	9.94282413278	5.4360049159	25.19
H	6.03748254512	1.33135123258	0.592668912486	25.19
H	14.2447662877	5.86104037786	5.69136842362	27.76
H	8.07461732634	5.4131201079	0.848047299798	27.76
H	0.634822788338	0.223967574772	8.83862470703	27.76
H	6.80497174966	11.0502077906	3.99528870362	27.76
H	14.0812098445	3.64271684046	6.85142582676	29.79
H	8.23817376946	7.6314436453	2.00810470293	29.79
H	0.798379231462	9.27980452314	7.67855242431	29.79
H	6.64141530654	1.99435596262	2.83523130049	29.79
H	12.4988994626	4.1492329322	6.20481840387	28.07
H	9.82048415139	7.12494243315	1.36149728004	28.07
H	2.38068961339	9.78630573529	8.3251598472	28.07
H	5.05910492461	1.48785475048	3.48183872337	28.07
H	0.497499060756	5.40011534705	8.20280498623	30.57
H	6.94229547724	5.87404513871	3.35946898281	30.57
H	14.3820900152	11.0372030297	6.32718814443	30.57
H	7.93729359876	0.236957456035	1.48385214102	30.57
H	0.641994750273	6.96556715456	7.41631454644	29.97
H	6.79779978773	4.3085933312	2.57297854302	29.97
H	14.2375943257	1.32849435147	7.11367858422	29.97
H	8.08178928827	9.94568101388	2.27035746039	29.97
H	13.9394222402	6.42653916069	0.175623789864	28.20
H	8.37996137377	4.84762132507	5.01894491369	28.20
H	0.940166835767	0.789466357605	4.66771221355	28.20
H	6.49962770223	10.4847090077	9.51103333738	28.20
H	14.12446481	7.95571453003	9.01567693745	28.77
H	8.19491880402	3.31844595573	4.17235581362	28.77
H	0.755124266018	2.31864172695	5.51430131362	28.77
H	6.68467027198	8.9555336384	0.670980189793	28.77
H	12.0576601281	8.69139117313	6.40158608981	30.55
H	10.2617234859	2.58278419222	1.55826496598	30.55
H	2.82192894785	3.05430349045	8.12839216126	30.55
H	4.61786559015	8.21985699531	3.28507103743	30.55
H	13.0743378109	7.94571544617	5.14414177618	29.09
H	9.24504580306	3.32845991918	0.300820652349	29.09
H	1.80525126506	2.3086277635	9.38583647489	29.09
H	5.63454327294	8.96554760185	4.54251535107	29.09
H	13.8175137669	8.54811560991	6.63991246804	29.78
H	8.50186984707	2.72604487585	1.79659134421	29.78
H	1.06207530907	2.91104280683	7.89006578303	29.78
H	6.37771922893	8.36313255852	3.0467446592	29.78
H	10.0723658353	1.65163438744	8.18084271275	22.51
H	12.2470177787	9.62252609833	3.33750670934	22.51
H	4.80722324073	7.28872207011	6.34915041791	22.51
H	2.63257129727	3.98545329524	1.50581441449	22.51
H	8.74086580681	10.8204966944	8.28058059833	22.96
H	13.5785178072	0.453678670927	3.4372594745	22.96
H	6.13872326919	5.18340901175	6.24939765274	22.96
H	1.30107126881	6.09075147401	1.40607652891	22.96
H	9.62725780765	8.84743342377	9.49331174679	22.80
H	12.6921258063	2.42672706199	4.64999062296	22.80
H	5.25233126835	3.21034574109	5.03666650428	22.80
H	2.18746326965	8.06381474467	0.193345380454	22.80
H	11.8323087516	8.96477386322	0.940851296865	22.35
H	10.4870748624	2.30940150213	5.78417242069	22.35
H	3.04728032441	3.32768618055	3.90248470655	22.35
H	4.39251421359	7.94648918481	8.74580583038	22.35
H	13.1781824631	11.0733157924	0.801221232975	22.50
H	9.1412011509	0.200859572937	5.64455723639	22.50
H	1.7014066129	5.43622810974	4.04209989085	22.50
H	5.7383879251	5.83794725561	8.88543589427	22.50
H	7.80203813406	7.34749644696	8.22228236833	26.13
H	14.5173454799	3.92667891839	3.3789612445	26.13
H	7.07755094194	1.71040876429	6.30769588274	26.13
H	0.362243596055	9.56376660106	1.46437475891	26.13
H	7.78138526442	5.58741961434	7.81931333697	25.53
H	14.5379983496	5.68674087142	2.97599221315	25.53
H	7.09820381158	11.224507297	6.7106649141	25.53
H	0.341590726418	0.0496680683357	1.86734379027	25.53
H	8.4301799869	6.79058318703	6.64689099532	26.24
H	13.8892036271	4.48359217833	1.80356987149	26.24
H	6.4494090891	1.15349550435	7.88308725575	26.24
H	0.990385448899	10.120679861	3.03976613193	26.24
172
Lattice="14.021470788 0.0 0.0 0.0 9.82304983289 0.0 8.26882588192 0.0 11.7284555412" Properties=species:S:1:pos:R:3:CS:R:1 ENERGY=-2132.38427076 Natoms=172 NAME=frm_0003
C	7.8309914351	6.84205710042	4.61715815872	100.95
C	14.8415585714	1.93064435574	4.61703196549	100.95
C	14.4593052348	6.84205710042	7.11129738249	100.95
C	7.44873809848	1.93064435574	7.11142357573	100.95
C	6.95776227736	5.7515792743	3.93771974875	119.55
C	13.9680349628	0.840418916091	3.93750942669	119.54
C	15.3325343926	5.7515792743	7.79074981394	119.55
C	8.3222617071	0.840418916091	7.79094611453	119.54
C	7.80677635505	5.04671993778	2.87172341062	101.09
C	14.8170490405	0.135461429283	2.87158319591	101.09
C	14.4835343363	5.04671993778	8.85673213059	101.09
C	7.47324762941	0.135461429283	8.85688636677	101.09
C	8.53335494981	6.03164413182	1.96631497743	136.74
C	1.52243727669	1.12024540861	1.96624487007	136.74
C	13.7569417201	6.03164413182	9.76214056379	136.74
C	20.7678593932	1.12024540861	9.76221067114	136.74
C	9.21291955302	7.11581229609	2.81632457954	105.11
C	2.20228230932	2.20418922934	2.81635262248	105.11
C	13.0773771169	7.11581229609	8.91213096168	105.11
C	20.0880143606	2.20418922934	8.91211694021	105.11
C	10.1454314892	6.51769841668	3.90723707125	146.54
C	3.13458392348	1.60586502788	3.90733522155	146.54
C	12.1448792021	6.51769841668	7.82121846996	146.54
C	19.1557267679	1.60586502788	7.82112031966	146.54
C	9.19749593515	6.28006252977	5.10755909953	146.55
C	16.2078807924	1.36818707655	5.10744692777	146.55
C	13.0928147562	6.28006252977	6.62089644168	146.55
C	6.08242989901	1.36818707655	6.62100861345	146.55
C	8.6385720666	9.10045333583	4.12152720931	128.02
C	15.6497982121	4.18881624762	4.12177959578	128.02
C	13.6517246033	9.10045333583	7.60694235338	128.02
C	6.64049845784	4.18881624762	7.6066899669	128.02
C	6.85609259268	2.88065508751	2.48767532574	-2.88
C	13.866659729	7.79236228308	2.4875491325	-2.89
C	15.4342180987	2.88065508751	9.24078021548	-2.88
C	8.42365096237	7.79236228308	9.24090640871	-2.89
C	6.02618977968	2.08305774321	1.5463859488	36.00
C	13.0370934313	6.99456863818	1.54623171262	36.00
C	16.2641209117	2.08305774321	10.1820695924	36.00
C	9.25321726007	6.99456863818	10.1822238286	36.00
C	6.03122348769	0.6857620933	1.64996255351	35.54
C	13.0422252896	5.59730103122	1.64986440321	35.54
C	16.2590872037	0.6857620933	10.0784929877	35.54
C	9.24807138029	5.59730103122	10.078591138	35.54
C	5.27989699699	9.74148693732	0.762782032338	36.77
C	12.2910810781	4.82987789205	0.762613774689	36.77
C	17.0104136944	9.74148693732	10.9656875303	36.77
C	9.99922961334	4.82987789205	10.9658417665	36.77
C	12.7624689045	0.546472802492	11.5231111015	32.59
C	19.7736249426	5.45784348276	11.5229428439	32.59
C	9.52782776545	0.546472802492	0.20534443969	32.59
C	2.51667172733	5.45784348276	0.205526718811	32.59
C	12.7363609259	1.93950592528	11.4308358023	38.58
C	19.7472926205	6.8508485626	11.4306535231	38.59
C	9.55393574406	1.93950592528	0.297633760417	38.58
C	2.54300404947	6.8508485626	0.297816039537	38.59
C	5.24446474031	2.70805078211	0.56388746921	35.78
C	12.2553964349	7.61947754826	0.563663125678	35.78
C	17.0458459511	2.70805078211	11.164568072	35.78
C	10.034900235	7.61947754826	11.1647924155	35.78
C	5.68929590106	6.38459259449	3.39055989419	-8.68
C	12.6995265221	1.4734743007	3.39011120712	-8.62
C	16.6010007689	6.38459259449	8.3379096685	-8.68
C	9.59077014782	1.4734743007	8.33835835556	-8.62
C	3.69398452204	7.47807101536	4.03525309955	117.17
C	10.7038365634	2.56637784127	4.03481843395	117.17
C	18.5963121479	7.47807101536	7.69320244166	117.17
C	11.5864601065	2.56637784127	7.69365112873	117.17
N	8.16569796428	7.83198695952	3.57617612448	167.44
N	15.1766436803	2.92057421484	3.57617612448	167.44
N	14.1245987056	7.83198695952	8.15227941673	167.44
N	7.11366701105	2.92057421484	8.15227941673	167.44
O	7.01597942407	4.15240248798	2.04904165508	77.15
O	14.0263222169	9.06413772649	2.04895752625	77.15
O	15.2743172458	4.15240248798	9.67941388614	77.15
O	8.26397445303	9.06413772649	9.67951203643	77.15
O	7.34092700959	2.45100917963	3.52707293378	-70.15
O	14.3515642533	7.36281452549	3.52705891231	-70.21
O	14.9493836818	2.45100917963	8.2013966289	-70.15
O	7.93873241663	7.36281452549	8.20141065038	-70.21
O	5.3648951529	6.4976757564	2.22391743874	-112.21
O	12.3753921819	1.58657148407	2.22372113815	-111.97
O	16.925401517	6.4976757564	9.50453810247	-112.21
O	9.91490448802	1.58657148407	9.50473440306	-111.97
O	4.91791870712	6.82115108748	4.41946944208	107.46
O	11.9279810705	1.90979442868	4.41910488384	107.50
O	17.3723779628	6.82115108748	7.30898609913	107.46
O	10.3623155994	1.90979442868	7.30935065737	107.50
H	7.26087843286	7.3097713015	5.42687005379	26.77
H	14.2715857839	2.39847072858	5.42678592496	26.77
H	15.0294182371	7.3097713015	6.3015995089	26.77
H	8.01871088601	2.39847072858	6.30168363772	26.77
H	6.65681944984	5.01807407296	4.70074014609	27.72
H	13.6670080065	0.1069417577	4.70050178109	27.73
H	15.6334772201	5.01807407296	7.0277294166	27.72
H	8.62328866344	0.1069417577	7.02795376013	27.73
H	8.53133585802	4.41910488384	3.40700707942	25.88
H	15.5415244147	9.33086816529	3.40699305795	25.88
H	13.7589748334	4.41910488384	8.32146248326	25.88
H	6.74877225527	9.33086816529	8.32147650473	25.88
H	9.73977631788	7.81312808131	2.15421670746	28.25
H	2.72936341771	2.90139284281	2.15430083628	28.25
H	12.550520352	7.81312808131	9.57423883376	28.25
H	19.5609332522	2.90139284281	9.57415470493	28.25
H	9.28741562732	5.5018849225	1.36932281569	29.75
H	2.27634371802	0.590317941646	1.36921064392	29.75
H	13.0028810426	5.5018849225	10.3591327255	29.75
H	20.0139669734	0.590317941646	10.3592448973	29.75
H	7.81868058375	6.50053613644	1.27853379233	28.25
H	14.8293879348	1.58943186412	1.27849172792	28.25
H	14.4716160862	6.50053613644	10.4499217489	28.25
H	7.46090873512	1.58943186412	10.4499638133	28.25
H	10.6526021091	5.60792930607	3.56425787431	30.36
H	3.64182465071	0.696123960212	3.56435602461	30.36
H	11.6376945608	5.60792930607	8.1641976669	30.36
H	18.6484860407	0.696123960212	8.16411353808	30.36
H	10.9366069999	7.23367677953	4.16368977197	29.57
H	3.92573139122	2.32180132631	4.16399824432	29.57
H	11.35368967	7.23367677953	7.56476576925	29.57
H	18.3645652787	2.32180132631	7.56445729689	29.57
H	9.1320016451	5.22319416912	5.39985067958	29.34
H	16.1421341159	0.311262630023	5.39948612134	29.34
H	13.1582950248	5.22319416912	6.32860486163	29.34
H	6.14816255406	0.311262630023	6.32896941988	29.34
H	9.51704525441	6.82711021256	6.00194665669	28.61
H	16.5274861975	1.91492628699	6.00200274257	28.61
H	12.7732514155	6.82711021256	5.72650888453	28.61
H	5.7628104724	1.91492628699	5.72645279864	28.61
H	7.82707944475	9.59256489608	4.67101462802	28.21
H	14.8383897191	4.68102595816	4.67130907891	28.21
H	14.4632172252	9.59256489608	7.05744091319	28.21
H	7.45190695087	4.68102595816	7.05714646231	28.21
H	8.91508949201	9.76190219878	3.29093734424	28.46
H	15.9265820454	4.8503492394	3.29132994542	28.46
H	13.3752211994	9.76190219878	8.43751819697	28.46
H	6.36372864596	4.8503492394	8.43712559579	28.46
H	9.51432508908	9.01726394965	4.79675917805	28.79
H	16.5254811272	4.10526230319	4.7970676504	28.79
H	12.7759715808	9.01726394965	6.93169636317	28.79
H	5.76481554272	4.10526230319	6.93140191228	28.79
H	6.63812882928	0.201137998454	2.4133895735	23.25
H	13.6490745453	5.11273302225	2.4133895735	23.25
H	15.6521678406	0.201137998454	9.31507998918	23.25
H	8.64122212458	5.11273302225	9.31506596771	23.25
H	5.31354852688	8.65440230712	0.834838370718	22.90
H	12.3247746724	3.74280728332	0.83471217748	22.90
H	16.976748143	8.65440230712	10.8936171705	22.90
H	9.96552199757	3.74280728332	10.8937433637	22.90
H	12.1503335543	9.77928882256	10.8416115353	23.01
H	19.1615036139	4.86752554111	10.8414853421	23.01
H	10.1399631156	9.77928882256	0.88684400587	23.01
H	3.12880707752	4.86752554111	0.886970199107	23.01
H	12.0984821553	2.41131439582	10.6852861575	22.58
H	19.1093016781	7.32260094727	10.6851599643	22.58
H	10.1918145146	2.41131439582	1.04316938369	22.58
H	3.18099499179	7.32260094727	1.04329557692	22.58
H	5.26056138877	3.79363511493	0.486180478103	22.50
H	12.2713949331	8.70504785961	0.4859421131	22.50
H	17.0297493026	3.79363511493	11.2422890846	22.50
H	10.0189017369	8.70504785961	11.2425274496	22.50
H	3.01293364293	6.77889037452	3.53941182807	26.85
H	10.0229960063	1.86698687836	3.53899118395	26.85
H	19.2773770485	6.77889037452	8.18904371314	26.85
H	12.2673006636	1.86698687836	8.18947837873	26.85
H	3.91172394191	8.31324590138	3.35875919844	26.67
H	10.9213656612	3.4015947917	3.35831051138	26.68
H	18.3785867495	8.31324590138	8.36969634277	26.67
H	11.3689310087	3.4015947917	8.37014502984	26.68
H	17.2644126377	7.83034644744	4.96561975075	26.33
H	10.2527237837	2.91855512305	4.96519910662	26.33
H	5.02588403219	7.83034644744	6.76283579047	26.33
H	12.0375728862	2.91855512305	6.76325643459	26.33
172
Lattice="14.873291834 0.0 0.0 0.0 12.9037854026 0.0 0.0 0.0 8.40955255574" Properties=species:S:1:pos:R:3:CS:R:1 ENERGY=-2132.38203066 Natoms=172 NAME=frm_0004
C	3.06896991032	7.15744448269	3.97625558549	101.93
C	11.8043219237	5.74634091994	3.97625558549	101.93
C	4.36775037314	0.705321245352	4.43151217523	101.95
C	10.5055414609	12.1984641573	4.43151217523	101.95
C	2.22610046209	6.70867264818	2.75258524643	119.81
C	12.6471913719	6.19511275445	2.75258524643	119.81
C	5.21056032821	0.258735784744	5.65613440497	119.81
C	9.66273150579	12.6450496179	5.65613440497	119.81
C	1.9452183458	5.21334163378	2.9090820231	101.65
C	12.9280734882	7.69042889556	2.9090820231	101.65
C	5.49074339977	11.6667737208	5.50210659474	101.62
C	9.38254843423	1.23701168183	5.50210659474	101.62
C	3.19896248095	4.41268258777	3.2509595092	134.99
C	11.6743293531	8.49110281486	3.2509595092	134.99
C	4.23646382612	10.8662039145	5.16214776329	135.00
C	10.6368280079	2.03758148809	5.16214776329	135.00
C	3.95730701169	5.09185658608	4.39981719033	105.61
C	10.9159848223	7.81192881656	4.39981719033	105.61
C	3.47847625438	11.5431766657	4.01180275297	105.60
C	11.3948155796	1.36060873697	4.01180275297	105.60
C	3.04657073282	5.35640782793	5.6276669244	146.02
C	11.8267211012	7.5473775747	5.6276669244	146.02
C	4.38907867363	11.8051697013	2.78325397419	146.04
C	10.4842131604	1.09861570132	2.78325397419	146.04
C	2.40572520757	6.72961424309	5.31662177227	145.26
C	12.4675666264	6.17417115955	5.31662177227	145.26
C	5.03072735664	0.274754320049	3.09183015987	145.28
C	9.84256447736	12.6290310826	3.09183015987	145.28
C	5.39549483887	7.04921153802	4.73818457956	128.51
C	9.47779699513	5.85455899133	4.73818457956	128.51
C	2.04112133155	0.596701595088	3.66982115383	128.53
C	12.8321705025	12.3070689343	3.66982115383	128.53
C	0.428425171278	3.67102589047	1.90367724171	-3.50
C	14.4448666627	9.23275951217	1.90367724171	-3.50
C	7.0062574712	10.1235953266	6.50740726309	-3.50
C	7.8670343628	2.78017520278	6.50740726309	-3.50
C	-0.0139511477403	3.08385807545	0.616914398691	37.24
C	14.8872429817	9.81992732719	0.616914398691	37.24
C	7.44906511568	9.53580283328	7.79391726014	37.29
C	7.42422671832	3.36796769606	7.79391726014	37.29
C	0.284600439244	3.67655875503	7.79193911233	38.43
C	14.5886913948	9.22721177431	7.79193911233	38.43
C	7.15116795354	10.1281763004	0.61910077259	38.45
C	7.72212388046	2.77560910219	0.61910077259	38.45
C	14.7401609988	3.06702150909	6.61067252829	38.14
C	0.133130835206	9.83674902025	6.61067252829	38.14
C	7.56928593358	9.51840108184	1.80018887713	38.11
C	7.30400590042	3.3853843208	1.80018887713	38.11
C	14.0324005336	1.86396555251	6.65911483979	31.03
C	0.840891300419	11.0398198501	6.65911483979	31.03
C	8.27710589196	8.31503278613	1.75109214078	30.94
C	6.59618594204	4.5887526165	1.75109214078	30.94
C	13.7256388895	1.27644077849	7.88776773162	33.13
C	1.1476529445	11.6273297509	7.88776773162	33.13
C	8.5828412789	7.72756750527	0.521695584369	33.08
C	6.2904505551	5.17620302407	0.521695584369	33.08
C	14.132973733	1.8863944766	0.658663728869	36.50
C	0.740318101037	11.017390926	0.658663728869	36.50
C	8.17470327768	8.33819050152	7.75152837842	36.53
C	6.69858855632	4.56559490112	7.75152837842	36.53
C	2.92047496465	7.10437657743	1.45866835004	-7.07
C	11.9528168694	5.79939395191	1.45866835004	-7.07
C	4.51627506539	0.657042540059	6.94947124298	-7.04
C	10.3570167686	12.2467428626	6.94947124298	-7.04
C	3.65246402226	8.96942788024	0.200447354047	118.65
C	11.2208278117	3.9343426491	0.200447354047	118.65
C	3.78504454567	2.52346218572	8.20555048494	118.62
C	11.0882472883	10.3803232169	8.20555048494	118.62
N	4.35373973223	6.43391832814	3.92256300196	168.16
N	10.5195521018	6.4698670745	3.92256300196	168.16
N	3.08262359222	-0.0175058644886	4.48655822831	168.16
N	11.7906682418	12.9212912671	4.48655822831	168.16
O	1.31436767266	4.68261796127	1.71707692236	79.84
O	13.5589241613	8.22115256808	1.71707692236	79.84
O	6.12224849775	11.1369424458	6.6942604284	79.86
O	8.75104333625	1.76682808354	6.6942604284	79.86
O	0.0558640841285	3.28949620834	3.00601126599	-66.51
O	14.8174277499	9.614274321	3.00601126599	-66.51
O	7.37716762296	9.74097989413	5.40492450589	-66.61
O	7.49612421104	3.16279063521	5.40492450589	-66.61
O	3.27313558732	6.36371639068	0.559726591589	-108.36
O	11.6001562467	6.54005413866	0.559726591589	-108.36
O	4.16334672347	12.8217294516	7.84927565235	-108.26
O	10.7099451105	0.0820559510482	7.84927565235	-108.26
O	3.08028848541	8.44862469339	1.41898640742	107.07
O	11.7930033486	4.45516070925	1.41898640742	107.07
O	4.35704160302	2.00146913552	6.98729402411	107.07
O	10.516250231	10.9023162671	6.98729402411	107.07
H	3.23372136396	8.23726034313	3.90621725424	27.07
H	11.63957047	4.6665250595	3.90621725424	27.07
H	4.20348973813	1.78533045859	4.49943849904	27.07
H	10.6698020959	11.118454944	4.49943849904	27.07
H	1.27673824432	7.26487426961	2.7846966835	28.36
H	13.5965535897	5.63891113302	2.7846966835	28.36
H	6.16010102547	0.814550700581	5.62283310455	28.35
H	8.71319080853	12.0892198288	5.62283310455	28.35
H	1.22129061237	5.09553028916	3.72598270379	25.14
H	13.6520012216	7.80824024018	3.72598270379	25.14
H	6.21400183508	11.547475047	4.68484895504	25.14
H	8.65928999892	1.35629548234	4.68484895504	25.14
H	4.84964502856	4.50503085677	4.65719950552	26.75
H	10.0236468054	8.39875454587	4.65719950552	26.75
H	2.58585564497	10.9562616966	3.75562517442	26.74
H	12.287436189	1.94750883274	3.75562517442	26.74
H	2.90317732625	3.39445702881	3.5352773559	29.13
H	11.9701145078	9.50932837382	3.5352773559	29.13
H	4.53146069636	9.8470413382	4.8803583762	29.14
H	10.3418311376	3.05674406443	4.8803583762	29.14
H	3.8496392521	4.35713084277	2.36885431711	29.17
H	11.0236525819	8.54665455986	2.36885431711	29.17
H	3.5857275618	10.8133442354	6.04434219513	29.16
H	11.2875642722	2.09044116727	6.04434219513	29.16
H	2.30900419077	4.55664117943	5.76818978565	28.77
H	12.5642876432	8.34712934991	5.76818978565	28.77
H	5.12615439705	11.0047932479	2.64375737008	28.76
H	9.74713743695	1.89899215478	2.64375737008	28.76
H	3.63595466832	5.41076970958	6.55065879574	27.86
H	11.2373371657	7.49301569305	6.55065879574	27.86
H	3.79926341266	11.8583863395	1.86044058235	27.87
H	11.0740284213	1.04538418984	1.86044058235	27.87
H	1.31073858945	6.68724023465	5.23969710691	29.16
H	13.5625532445	6.21654516798	5.23969710691	29.16
H	6.12568422817	0.231844873108	3.16882919169	29.16
H	8.74760760583	12.6719256562	3.16882919169	29.16
H	2.62999957513	7.45638277526	6.10435592768	28.62
H	12.2432922589	5.44738775408	6.10435592768	28.62
H	4.80685456795	1.00024374913	2.30274253491	28.62
H	10.066437266	11.9035416535	2.30274253491	28.62
H	5.70117073264	8.00602527499	4.29802438102	28.05
H	9.17212110136	4.89776012764	4.29802438102	28.05
H	1.73513309865	1.55394665752	4.10883610889	28.05
H	13.1381587354	11.3498387451	4.10883610889	28.05
H	6.27649940736	6.39322500168	4.74022222054	27.87
H	8.59679242664	6.51054552766	4.74022222054	27.87
H	1.16019112951	-0.0593593077095	3.66818509173	27.87
H	13.7131007045	12.9631447103	3.66818509173	27.87
H	5.10848492635	7.22873217045	5.79408418673	28.64
H	9.76480690765	5.67505323218	5.79408418673	28.64
H	2.32854769624	0.775136477221	2.6138471802	28.64
H	12.5447441378	12.1286489254	2.6138471802	28.64
H	0.849696289185	4.60713600521	7.77014973979	22.51
H	14.0235955448	8.29663452413	7.77014973979	22.51
H	6.58611672347	11.0588874103	0.641574316551	22.51
H	8.28717511053	1.84489799238	0.641574316551	22.51
H	0.0869641373534	3.52041893736	5.64619904602	22.48
H	14.7863276966	9.38336646528	5.64619904602	22.48
H	7.34965203306	9.97114408526	2.76473672585	22.48
H	7.52363980094	2.93262644408	2.76473672585	22.48
H	13.707776066	1.37573487477	5.74074856221	22.86
H	1.16551576799	11.5280356546	5.74074856221	22.86
H	8.60239965766	7.82672774193	2.66877424694	22.86
H	6.27089217634	5.07704278741	2.66877424694	22.86