
     Program PWSCF v.7.1 starts on  5Sep2022 at 15: 0:22 

     This program is part of the open-source Quantum ESPRESSO suite
     for quantum simulation of materials; please cite
         "P. Giannozzi et al., J. Phys.:Condens. Matter 21 395502 (2009);
         "P. Giannozzi et al., J. Phys.:Condens. Matter 29 465901 (2017);
         "P. Giannozzi et al., J. Chem. Phys. 152 154105 (2020);
          URL http://www.quantum-espresso.org", 
     in publications or presentations arising from this work. More details at
     http://www.quantum-espresso.org/quote

     Parallel version (MPI), running on     1 processors

     MPI processes distributed on     1 nodes
     8548 MiB available memory on the printing compute node when the environment starts

     Waiting for input...
     Reading input from standard input
Warning: card &CELL ignored
Warning: card / ignored

     Current dimensions of program PWSCF are:
     Max number of different atomic species (ntypx) = 10
     Max number of k-points (npk) =  40000
     Max angular momentum in pseudopotentials (lmaxx) =  4

     gamma-point specific algorithms are used

     Subspace diagonalization in iterative solution of the eigenvalue problem:
     a serial algorithm will be used


     G-vector sticks info
     --------------------
     sticks:   dense  smooth     PW     G-vecs:    dense   smooth      PW
     Sum       11913   11913   2965               979259   979259  122321

     Using Slab Decomposition



     bravais-lattice index     =            1
     lattice parameter (alat)  =      24.9822  a.u.
     unit-cell volume          =   15591.6104 (a.u.)^3
     number of atoms/cell      =            2
     number of atomic types    =            2
     number of electrons       =         5.00
     number of Kohn-Sham states=            7
     kinetic-energy cutoff     =      60.0000  Ry
     charge density cutoff     =     240.0000  Ry
     scf convergence threshold =      1.0E-10
     mixing beta               =       0.5000
     number of iterations used =            8  plain     mixing
     energy convergence thresh.=      1.0E-04
     force convergence thresh. =      1.0E-03
     Exchange-correlation=  SLA  PW   PBX  PBC
                           (   1   4   3   4   0   0   0)
     nstep                     =           50


     celldm(1)=  24.982179  celldm(2)=   0.000000  celldm(3)=   0.000000
     celldm(4)=   0.000000  celldm(5)=   0.000000  celldm(6)=   0.000000

     crystal axes: (cart. coord. in units of alat)
               a(1) = (   1.000000   0.000000   0.000000 )  
               a(2) = (   0.000000   1.000000   0.000000 )  
               a(3) = (   0.000000   0.000000   1.000000 )  

     reciprocal axes: (cart. coord. in units 2 pi/alat)
               b(1) = (  1.000000  0.000000  0.000000 )  
               b(2) = (  0.000000  1.000000  0.000000 )  
               b(3) = (  0.000000  0.000000  1.000000 )  


     PseudoPot. # 1 for H  read from file:
     ../../pseudos/H.pbe-tm-new-gipaw-dc.UPF
     MD5 check sum: 0e5abdcbf773fd5bd1c97111569d22ab
     Pseudo is Norm-conserving, Zval =  1.0
     Generated by new atomic code, or converted to UPF format
     Using radial grid of 1261 points,  0 beta functions with: 

     PseudoPot. # 2 for C  read from file:
     ../../pseudos/C.pbe-tm-new-gipaw-dc.UPF
     MD5 check sum: c9fa938d11269a3b0a4c160d8754c0f1
     Pseudo is Norm-conserving, Zval =  4.0
     Generated by new atomic code, or converted to UPF format
     Using radial grid of 1441 points,  1 beta functions with: 
                l(1) =   0

     atomic species   valence    mass     pseudopotential
        H              1.00     1.00800     H ( 1.00)
        C              4.00    12.01100     C ( 1.00)

     No symmetry found



   Cartesian axes

     site n.     atom                  positions (alat units)
         1           H   tau(   1) = (   0.0000000   0.0000000   0.0000000  )
         2           C   tau(   2) = (   0.0075643   0.0000000   0.0000000  )

     -------------------------------------------------
     Parameters for Dispersion (Grimme-D2) Correction:
     -------------------------------------------------
       atom      VdW radius       C_6     

        H          1.892          4.857
        C          2.744         60.710

     number of k points=     1  Marzari-Vanderbilt smearing, width (Ry)=  0.0200
                       cart. coord. in units 2pi/alat
        k(    1) = (   0.0000000   0.0000000   0.0000000), wk =   2.0000000

     Dense  grid:   489630 G-vectors     FFT dimensions: ( 125, 125, 125)

     Estimated max dynamical RAM per process >     386.28 MB

     Initial potential from superposition of free atoms

     starting charge       4.5000, renormalised to       5.0000

     negative rho (up, down):  2.045E-04 0.000E+00
     Starting wfcs are   10 randomized atomic wfcs

     total cpu time spent up to now is        2.3 secs

     Self-consistent Calculation

     iteration #  1     ecut=    60.00 Ry     beta= 0.50
     Davidson diagonalization with overlap
     ethr =  1.00E-02,  avg # of iterations =  5.0

     negative rho (up, down):  9.458E-05 0.000E+00

     total cpu time spent up to now is        4.3 secs

     total energy              =      23.37668950 Ry
     estimated scf accuracy    <       0.89946146 Ry

     iteration #  2     ecut=    60.00 Ry     beta= 0.50
     Davidson diagonalization with overlap
     ethr =  1.00E-02,  avg # of iterations =  2.0

     negative rho (up, down):  4.085E-05 0.000E+00

     total cpu time spent up to now is        5.7 secs

     total energy              =      23.28682441 Ry
     estimated scf accuracy    <       0.12415142 Ry

     iteration #  3     ecut=    60.00 Ry     beta= 0.50
     Davidson diagonalization with overlap
     ethr =  2.48E-03,  avg # of iterations =  1.0

     negative rho (up, down):  2.373E-05 0.000E+00

     total cpu time spent up to now is        7.1 secs

     total energy              =      23.28401250 Ry
     estimated scf accuracy    <       0.12377836 Ry

     iteration #  4     ecut=    60.00 Ry     beta= 0.50
     Davidson diagonalization with overlap
     ethr =  2.48E-03,  avg # of iterations =  1.0

     negative rho (up, down):  3.882E-07 0.000E+00

     total cpu time spent up to now is        8.3 secs

     total energy              =      23.27254225 Ry
     estimated scf accuracy    <       0.01662215 Ry

     iteration #  5     ecut=    60.00 Ry     beta= 0.50
     Davidson diagonalization with overlap
     ethr =  3.32E-04,  avg # of iterations =  7.0

     negative rho (up, down):  1.622E-06 0.000E+00

     total cpu time spent up to now is       10.0 secs

     total energy              =      23.27066153 Ry
     estimated scf accuracy    <       0.01808083 Ry

     iteration #  6     ecut=    60.00 Ry     beta= 0.50
     Davidson diagonalization with overlap
     ethr =  3.32E-04,  avg # of iterations =  1.0

     negative rho (up, down):  2.099E-07 0.000E+00

     total cpu time spent up to now is       11.3 secs

     total energy              =      23.26975883 Ry
     estimated scf accuracy    <       0.00013108 Ry

     iteration #  7     ecut=    60.00 Ry     beta= 0.50
     Davidson diagonalization with overlap
     ethr =  2.62E-06,  avg # of iterations =  7.0

     negative rho (up, down):  1.416E-08 0.000E+00

     total cpu time spent up to now is       13.3 secs

     total energy              =      23.26975890 Ry
     estimated scf accuracy    <       0.00005360 Ry

     iteration #  8     ecut=    60.00 Ry     beta= 0.50
     Davidson diagonalization with overlap
     ethr =  1.07E-06,  avg # of iterations =  1.0

     total cpu time spent up to now is       14.5 secs

     total energy              =      23.26975580 Ry
     estimated scf accuracy    <       0.00000077 Ry

     iteration #  9     ecut=    60.00 Ry     beta= 0.50
     Davidson diagonalization with overlap
     ethr =  1.54E-08,  avg # of iterations =  2.0

     total cpu time spent up to now is       15.9 secs

     total energy              =      23.26975602 Ry
     estimated scf accuracy    <       0.00000558 Ry

     iteration # 10     ecut=    60.00 Ry     beta= 0.50
     Davidson diagonalization with overlap
     ethr =  1.54E-08,  avg # of iterations =  1.0

     total cpu time spent up to now is       17.2 secs

     total energy              =      23.26975556 Ry
     estimated scf accuracy    <       0.00000017 Ry

     iteration # 11     ecut=    60.00 Ry     beta= 0.50
     Davidson diagonalization with overlap
     ethr =  3.36E-09,  avg # of iterations =  1.0

     total cpu time spent up to now is       18.5 secs

     total energy              =      23.26975556 Ry
     estimated scf accuracy    <       0.00000006 Ry

     iteration # 12     ecut=    60.00 Ry     beta= 0.50
     Davidson diagonalization with overlap
     ethr =  1.15E-09,  avg # of iterations =  1.0

     total cpu time spent up to now is       19.7 secs

     total energy              =      23.26975556 Ry
     estimated scf accuracy    <          1.6E-09 Ry

     iteration # 13     ecut=    60.00 Ry     beta= 0.50
     Davidson diagonalization with overlap
     ethr =  3.15E-11,  avg # of iterations =  2.0

     total cpu time spent up to now is       21.1 secs

     total energy              =      23.26975556 Ry
     estimated scf accuracy    <          3.5E-10 Ry

     iteration # 14     ecut=    60.00 Ry     beta= 0.50
     Davidson diagonalization with overlap
     ethr =  6.94E-12,  avg # of iterations =  1.0

     total cpu time spent up to now is       22.3 secs

     End of self-consistent calculation

          k = 0.0000 0.0000 0.0000 ( 61161 PWs)   bands (ev):

   -16.9479  -7.3938  -7.2346  -7.2346  -0.2202   0.5143   0.6938

     the Fermi energy is    -7.2517 ev

!    total energy              =      23.26975555 Ry
     estimated scf accuracy    <          9.6E-12 Ry
     smearing contrib. (-TS)   =      -0.01643227 Ry
     internal energy E=F+TS    =      23.28618782 Ry

     The total energy is F=E-TS. E is the sum of the following terms:
     one-electron contribution =     -25.17543446 Ry
     hartree contribution      =      13.40554023 Ry
     xc contribution           =      -4.43749331 Ry
     ewald contribution        =      39.49489384 Ry
     Dispersion Correction     =      -0.00131848 Ry

     convergence has been achieved in  14 iterations

     Forces acting on atoms (cartesian axes, Ry/au):

     atom    1 type  1   force =  -224.95262323    0.00000126    0.00000112
     atom    2 type  2   force =   224.95262323   -0.00000126   -0.00000112

     Total force =   224.952623     Total SCF correction =     0.000002

     BFGS Geometry Optimization
     Energy error            =      0.0E+00 Ry
     Gradient error          =      2.2E+02 Ry/Bohr

     number of scf cycles    =   1
     number of bfgs steps    =   0

     energy             new  =      23.2697555531 Ry

     new trust radius        =       0.5000000000 bohr
     new conv_thr            =            1.0E-10 Ry


ATOMIC_POSITIONS (angstrom)
H             0.0000000000        0.0000000000        0.0000000000    0   0   0
C             0.3645886055        0.0000000000        0.0000000000    1   0   0



     Writing config-only to output data dir ./pwscf.save/
     NEW-OLD atomic charge density approx. for the potential

     negative rho (up, down):  2.084E-03 0.000E+00

     total cpu time spent up to now is       23.3 secs

     Self-consistent Calculation

     iteration #  1     ecut=    60.00 Ry     beta= 0.50
     Davidson diagonalization with overlap
     ethr =  1.00E-06,  avg # of iterations = 10.0

     negative rho (up, down):  4.437E-04 0.000E+00

     total cpu time spent up to now is       26.4 secs

     total energy              =      -7.65230620 Ry
     estimated scf accuracy    <       0.13726955 Ry

     iteration #  2     ecut=    60.00 Ry     beta= 0.50
     Davidson diagonalization with overlap
     ethr =  2.75E-03,  avg # of iterations =  1.0

     negative rho (up, down):  3.535E-06 0.000E+00

     total cpu time spent up to now is       27.6 secs

     total energy              =      -7.65593774 Ry
     estimated scf accuracy    <       0.02761538 Ry

     iteration #  3     ecut=    60.00 Ry     beta= 0.50
     Davidson diagonalization with overlap
     ethr =  5.52E-04,  avg # of iterations =  1.0

     negative rho (up, down):  5.032E-08 0.000E+00

     total cpu time spent up to now is       28.8 secs

     total energy              =      -7.65728991 Ry
     estimated scf accuracy    <       0.00057907 Ry

     iteration #  4     ecut=    60.00 Ry     beta= 0.50
     Davidson diagonalization with overlap
     ethr =  1.16E-05,  avg # of iterations =  5.0

     total cpu time spent up to now is       30.6 secs

     total energy              =      -7.65737768 Ry
     estimated scf accuracy    <       0.00003184 Ry

     iteration #  5     ecut=    60.00 Ry     beta= 0.50
     Davidson diagonalization with overlap
     ethr =  6.37E-07,  avg # of iterations =  9.0

     total cpu time spent up to now is       32.6 secs

     total energy              =      -7.65738450 Ry
     estimated scf accuracy    <       0.00000441 Ry

     iteration #  6     ecut=    60.00 Ry     beta= 0.50
     Davidson diagonalization with overlap
     ethr =  8.81E-08,  avg # of iterations =  1.0

     total cpu time spent up to now is       33.9 secs

     total energy              =      -7.65738479 Ry
     estimated scf accuracy    <       0.00000008 Ry

     iteration #  7     ecut=    60.00 Ry     beta= 0.50
     Davidson diagonalization with overlap
     ethr =  1.59E-09,  avg # of iterations =  2.0

     total cpu time spent up to now is       35.3 secs

     total energy              =      -7.65738481 Ry
     estimated scf accuracy    <          6.3E-09 Ry

     iteration #  8     ecut=    60.00 Ry     beta= 0.50
     Davidson diagonalization with overlap
     ethr =  1.26E-10,  avg # of iterations =  2.0

     total cpu time spent up to now is       36.7 secs

     total energy              =      -7.65738481 Ry
     estimated scf accuracy    <          7.9E-10 Ry

     iteration #  9     ecut=    60.00 Ry     beta= 0.50
     Davidson diagonalization with overlap
     ethr =  1.58E-11,  avg # of iterations =  1.0

     total cpu time spent up to now is       37.9 secs

     total energy              =      -7.65738481 Ry
     estimated scf accuracy    <          2.5E-10 Ry

     iteration # 10     ecut=    60.00 Ry     beta= 0.50
     Davidson diagonalization with overlap
     ethr =  4.98E-12,  avg # of iterations =  2.0

     total cpu time spent up to now is       39.2 secs

     End of self-consistent calculation

          k = 0.0000 0.0000 0.0000 ( 61161 PWs)   bands (ev):

   -20.4144  -7.8809  -5.6624  -5.6624  -0.2742   0.4245   0.6738

     the Fermi energy is    -5.7292 ev

!    total energy              =      -7.65738481 Ry
     estimated scf accuracy    <          1.9E-12 Ry
     smearing contrib. (-TS)   =      -0.01226994 Ry
     internal energy E=F+TS    =      -7.64511488 Ry

     The total energy is F=E-TS. E is the sum of the following terms:
     one-electron contribution =     -25.07827221 Ry
     hartree contribution      =      13.14563660 Ry
     xc contribution           =      -4.48515442 Ry
     ewald contribution        =       8.77268131 Ry
     Dispersion Correction     =      -0.00000614 Ry

     convergence has been achieved in  10 iterations

     Forces acting on atoms (cartesian axes, Ry/au):

     atom    1 type  1   force =   -15.55726780    0.00000001    0.00000004
     atom    2 type  2   force =    15.55726780   -0.00000001   -0.00000004

     Total force =    15.557268     Total SCF correction =     0.000000
     Energy error            =      3.1E+01 Ry
     Gradient error          =      1.6E+01 Ry/Bohr

     number of scf cycles    =   2
     number of bfgs steps    =   1

     energy             old  =      23.2697555531 Ry
     energy             new  =      -7.6573848137 Ry

     CASE: energy            _new < energy            _old

     new trust radius        =       0.0371480728 bohr
     new conv_thr            =            1.0E-10 Ry


ATOMIC_POSITIONS (angstrom)
H             0.0000000000        0.0000000000        0.0000000000    0   0   0
C             0.3842465190        0.0000000000        0.0000000000    1   0   0



     Writing config-only to output data dir ./pwscf.save/
     NEW-OLD atomic charge density approx. for the potential

     negative rho (up, down):  1.650E-05 0.000E+00

     total cpu time spent up to now is       40.3 secs

     Self-consistent Calculation

     iteration #  1     ecut=    60.00 Ry     beta= 0.50
     Davidson diagonalization with overlap
     ethr =  1.00E-06,  avg # of iterations =  5.0

     negative rho (up, down):  6.184E-06 0.000E+00

     total cpu time spent up to now is       42.3 secs

     total energy              =      -8.19781290 Ry
     estimated scf accuracy    <       0.00083943 Ry

     iteration #  2     ecut=    60.00 Ry     beta= 0.50
     Davidson diagonalization with overlap
     ethr =  1.68E-05,  avg # of iterations =  1.0

     negative rho (up, down):  1.625E-07 0.000E+00

     total cpu time spent up to now is       43.5 secs

     total energy              =      -8.19793208 Ry
     estimated scf accuracy    <       0.00018907 Ry

     iteration #  3     ecut=    60.00 Ry     beta= 0.50
     Davidson diagonalization with overlap
     ethr =  3.78E-06,  avg # of iterations =  1.0

     total cpu time spent up to now is       44.7 secs

     total energy              =      -8.19794152 Ry
     estimated scf accuracy    <       0.00000258 Ry

     iteration #  4     ecut=    60.00 Ry     beta= 0.50
     Davidson diagonalization with overlap
     ethr =  5.17E-08,  avg # of iterations =  2.0

     total cpu time spent up to now is       46.0 secs

     total energy              =      -8.19794183 Ry
     estimated scf accuracy    <       0.00000005 Ry

     iteration #  5     ecut=    60.00 Ry     beta= 0.50
     Davidson diagonalization with overlap
     ethr =  1.02E-09,  avg # of iterations =  2.0

     total cpu time spent up to now is       47.3 secs

     total energy              =      -8.19794184 Ry
     estimated scf accuracy    <          3.7E-09 Ry

     iteration #  6     ecut=    60.00 Ry     beta= 0.50
     Davidson diagonalization with overlap
     ethr =  7.36E-11,  avg # of iterations =  2.0

     total cpu time spent up to now is       48.7 secs

     total energy              =      -8.19794184 Ry
     estimated scf accuracy    <          6.3E-10 Ry

     iteration #  7     ecut=    60.00 Ry     beta= 0.50
     Davidson diagonalization with overlap
     ethr =  1.25E-11,  avg # of iterations =  2.0

     total cpu time spent up to now is       50.0 secs

     End of self-consistent calculation

          k = 0.0000 0.0000 0.0000 ( 61161 PWs)   bands (ev):

   -20.5061  -7.8815  -5.5939  -5.5939  -0.2796   0.4203   0.6726

     the Fermi energy is    -5.6607 ev

!    total energy              =      -8.19794184 Ry
     estimated scf accuracy    <          7.8E-12 Ry
     smearing contrib. (-TS)   =      -0.01226994 Ry
     internal energy E=F+TS    =      -8.18567190 Ry

     The total energy is F=E-TS. E is the sum of the following terms:
     one-electron contribution =     -24.97432062 Ry
     hartree contribution      =      13.07911016 Ry
     xc contribution           =      -4.46915418 Ry
     ewald contribution        =       8.17869818 Ry
     Dispersion Correction     =      -0.00000545 Ry

     convergence has been achieved in   7 iterations

     Forces acting on atoms (cartesian axes, Ry/au):

     atom    1 type  1   force =   -13.59878925    0.00000003    0.00000000
     atom    2 type  2   force =    13.59878925   -0.00000003   -0.00000000

     Total force =    13.598789     Total SCF correction =     0.000002
     Energy error            =      5.4E-01 Ry
     Gradient error          =      1.4E+01 Ry/Bohr

     number of scf cycles    =   3
     number of bfgs steps    =   2

     energy             old  =      -7.6573848137 Ry
     energy             new  =      -8.1979418374 Ry

     CASE: energy            _new < energy            _old


     WARNING: bfgs curvature condition failed, Theta= 0.915
     new trust radius        =       0.0408628800 bohr
     new conv_thr            =            1.0E-10 Ry


ATOMIC_POSITIONS (angstrom)
H             0.0000000000        0.0000000000        0.0000000000    0   0   0
C             0.4058702239        0.0000000000        0.0000000000    1   0   0



     Writing config-only to output data dir ./pwscf.save/
     NEW-OLD atomic charge density approx. for the potential

     negative rho (up, down):  1.882E-05 0.000E+00

     total cpu time spent up to now is       51.1 secs

     Self-consistent Calculation

     iteration #  1     ecut=    60.00 Ry     beta= 0.50
     Davidson diagonalization with overlap
     ethr =  1.00E-06,  avg # of iterations =  5.0

     negative rho (up, down):  7.002E-06 0.000E+00

     total cpu time spent up to now is       53.1 secs

     total energy              =      -8.71458976 Ry
     estimated scf accuracy    <       0.00103851 Ry

     iteration #  2     ecut=    60.00 Ry     beta= 0.50
     Davidson diagonalization with overlap
     ethr =  2.08E-05,  avg # of iterations =  1.0

     negative rho (up, down):  3.530E-07 0.000E+00

     total cpu time spent up to now is       54.3 secs

     total energy              =      -8.71472451 Ry
     estimated scf accuracy    <       0.00022148 Ry

     iteration #  3     ecut=    60.00 Ry     beta= 0.50
     Davidson diagonalization with overlap
     ethr =  4.43E-06,  avg # of iterations =  1.0

     total cpu time spent up to now is       55.5 secs

     total energy              =      -8.71473668 Ry
     estimated scf accuracy    <       0.00000445 Ry

     iteration #  4     ecut=    60.00 Ry     beta= 0.50
     Davidson diagonalization with overlap
     ethr =  8.89E-08,  avg # of iterations =  2.0

     total cpu time spent up to now is       56.8 secs

     total energy              =      -8.71473711 Ry
     estimated scf accuracy    <       0.00000008 Ry

     iteration #  5     ecut=    60.00 Ry     beta= 0.50
     Davidson diagonalization with overlap
     ethr =  1.64E-09,  avg # of iterations =  2.0

     total cpu time spent up to now is       58.1 secs

     total energy              =      -8.71473711 Ry
     estimated scf accuracy    <          7.0E-09 Ry

     iteration #  6     ecut=    60.00 Ry     beta= 0.50
     Davidson diagonalization with overlap
     ethr =  1.41E-10,  avg # of iterations =  2.0

     total cpu time spent up to now is       59.5 secs

     total energy              =      -8.71473711 Ry
     estimated scf accuracy    <          1.3E-09 Ry

     iteration #  7     ecut=    60.00 Ry     beta= 0.50
     Davidson diagonalization with overlap
     ethr =  2.64E-11,  avg # of iterations =  2.0

     total cpu time spent up to now is       60.8 secs

     End of self-consistent calculation

          k = 0.0000 0.0000 0.0000 ( 61161 PWs)   bands (ev):

   -20.5678  -7.8753  -5.5276  -5.5276  -0.2855   0.4161   0.6715

     the Fermi energy is    -5.5944 ev

!    total energy              =      -8.71473711 Ry
     estimated scf accuracy    <          1.2E-11 Ry
     smearing contrib. (-TS)   =      -0.01226994 Ry
     internal energy E=F+TS    =      -8.70246718 Ry

     The total energy is F=E-TS. E is the sum of the following terms:
     one-electron contribution =     -24.84485886 Ry
     hartree contribution      =      13.00000817 Ry
     xc contribution           =      -4.44939448 Ry
     ewald contribution        =       7.59178286 Ry
     Dispersion Correction     =      -0.00000486 Ry

     convergence has been achieved in   7 iterations

     Forces acting on atoms (cartesian axes, Ry/au):

     atom    1 type  1   force =   -11.74465052   -0.00000005    0.00000000
     atom    2 type  2   force =    11.74465052    0.00000005   -0.00000000

     Total force =    11.744651     Total SCF correction =     0.000002
     Energy error            =      5.2E-01 Ry
     Gradient error          =      1.2E+01 Ry/Bohr

     number of scf cycles    =   4
     number of bfgs steps    =   3

     energy             old  =      -8.1979418374 Ry
     energy             new  =      -8.7147371142 Ry

     CASE: energy            _new < energy            _old

     new trust radius        =       0.0612943201 bohr
     new conv_thr            =            1.0E-10 Ry


ATOMIC_POSITIONS (angstrom)
H             0.0000000000        0.0000000000        0.0000000000    0   0   0
C             0.4383057812        0.0000000000        0.0000000000    1   0   0



     Writing config-only to output data dir ./pwscf.save/
     NEW-OLD atomic charge density approx. for the potential

     negative rho (up, down):  3.520E-05 0.000E+00

     total cpu time spent up to now is       61.9 secs

     Self-consistent Calculation

     iteration #  1     ecut=    60.00 Ry     beta= 0.50
     Davidson diagonalization with overlap
     ethr =  1.00E-06,  avg # of iterations =  6.0

     negative rho (up, down):  1.169E-05 0.000E+00

     total cpu time spent up to now is       64.1 secs

     total energy              =      -9.36128280 Ry
     estimated scf accuracy    <       0.00240616 Ry

     iteration #  2     ecut=    60.00 Ry     beta= 0.50
     Davidson diagonalization with overlap
     ethr =  4.81E-05,  avg # of iterations =  1.0

     negative rho (up, down):  1.043E-06 0.000E+00

     total cpu time spent up to now is       65.3 secs

     total energy              =      -9.36158525 Ry
     estimated scf accuracy    <       0.00048200 Ry

     iteration #  3     ecut=    60.00 Ry     beta= 0.50
     Davidson diagonalization with overlap
     ethr =  9.64E-06,  avg # of iterations =  1.0

     total cpu time spent up to now is       66.5 secs

     total energy              =      -9.36161204 Ry
     estimated scf accuracy    <       0.00001434 Ry

     iteration #  4     ecut=    60.00 Ry     beta= 0.50
     Davidson diagonalization with overlap
     ethr =  2.87E-07,  avg # of iterations =  2.0

     total cpu time spent up to now is       67.8 secs

     total energy              =      -9.36161281 Ry
     estimated scf accuracy    <       0.00000021 Ry

     iteration #  5     ecut=    60.00 Ry     beta= 0.50
     Davidson diagonalization with overlap
     ethr =  4.16E-09,  avg # of iterations =  2.0

     total cpu time spent up to now is       69.1 secs

     total energy              =      -9.36161285 Ry
     estimated scf accuracy    <       0.00000002 Ry

     iteration #  6     ecut=    60.00 Ry     beta= 0.50
     Davidson diagonalization with overlap
     ethr =  4.95E-10,  avg # of iterations =  2.0

     total cpu time spent up to now is       70.5 secs

     total energy              =      -9.36161285 Ry
     estimated scf accuracy    <          6.3E-09 Ry

     iteration #  7     ecut=    60.00 Ry     beta= 0.50
     Davidson diagonalization with overlap
     ethr =  1.25E-10,  avg # of iterations =  2.0

     total cpu time spent up to now is       71.8 secs

     End of self-consistent calculation

          k = 0.0000 0.0000 0.0000 ( 61161 PWs)   bands (ev):

   -20.5909  -7.8522  -5.4449  -5.4449  -0.2941   0.4108   0.6700

     the Fermi energy is    -5.5117 ev

!    total energy              =      -9.36161285 Ry
     estimated scf accuracy    <          3.8E-11 Ry
     smearing contrib. (-TS)   =      -0.01226994 Ry
     internal energy E=F+TS    =      -9.34934291 Ry

     The total energy is F=E-TS. E is the sum of the following terms:
     one-electron contribution =     -24.62481013 Ry
     hartree contribution      =      12.87154567 Ry
     xc contribution           =      -4.41608549 Ry
     ewald contribution        =       6.82001126 Ry
     Dispersion Correction     =      -0.00000423 Ry

     convergence has been achieved in   7 iterations

     Forces acting on atoms (cartesian axes, Ry/au):

     atom    1 type  1   force =    -9.44338606   -0.00000005   -0.00000000
     atom    2 type  2   force =     9.44338606    0.00000005    0.00000000

     Total force =     9.443386     Total SCF correction =     0.000002
     Energy error            =      6.5E-01 Ry
     Gradient error          =      9.4E+00 Ry/Bohr

     number of scf cycles    =   5
     number of bfgs steps    =   4

     energy             old  =      -8.7147371142 Ry
     energy             new  =      -9.3616128493 Ry

     CASE: energy            _new < energy            _old

     new trust radius        =       0.0919414801 bohr
     new conv_thr            =            1.0E-10 Ry


ATOMIC_POSITIONS (angstrom)
H             0.0000000000        0.0000000000        0.0000000000    0   0   0
C             0.4869591172        0.0000000000        0.0000000000    1   0   0



     Writing config-only to output data dir ./pwscf.save/
     NEW-OLD atomic charge density approx. for the potential

     negative rho (up, down):  6.817E-05 0.000E+00

     total cpu time spent up to now is       72.9 secs

     Self-consistent Calculation

     iteration #  1     ecut=    60.00 Ry     beta= 0.50
     Davidson diagonalization with overlap
     ethr =  1.00E-06,  avg # of iterations =  7.0

     negative rho (up, down):  1.870E-05 0.000E+00

     total cpu time spent up to now is       75.3 secs

     total energy              =     -10.10207240 Ry
     estimated scf accuracy    <       0.00561964 Ry

     iteration #  2     ecut=    60.00 Ry     beta= 0.50
     Davidson diagonalization with overlap
     ethr =  1.12E-04,  avg # of iterations =  1.0

     negative rho (up, down):  2.552E-06 0.000E+00

     total cpu time spent up to now is       76.5 secs

     total energy              =     -10.10273234 Ry
     estimated scf accuracy    <       0.00101977 Ry

     iteration #  3     ecut=    60.00 Ry     beta= 0.50
     Davidson diagonalization with overlap
     ethr =  2.04E-05,  avg # of iterations =  1.0

     negative rho (up, down):  1.623E-08 0.000E+00

     total cpu time spent up to now is       77.7 secs

     total energy              =     -10.10279954 Ry
     estimated scf accuracy    <       0.00004625 Ry

     iteration #  4     ecut=    60.00 Ry     beta= 0.50
     Davidson diagonalization with overlap
     ethr =  9.25E-07,  avg # of iterations =  6.0

     total cpu time spent up to now is       79.4 secs

     total energy              =     -10.10280156 Ry
     estimated scf accuracy    <       0.00000067 Ry

     iteration #  5     ecut=    60.00 Ry     beta= 0.50
     Davidson diagonalization with overlap
     ethr =  1.35E-08,  avg # of iterations =  2.0

     total cpu time spent up to now is       80.7 secs

     total energy              =     -10.10280167 Ry
     estimated scf accuracy    <       0.00000006 Ry

     iteration #  6     ecut=    60.00 Ry     beta= 0.50
     Davidson diagonalization with overlap
     ethr =  1.15E-09,  avg # of iterations =  2.0

     total cpu time spent up to now is       82.1 secs

     total energy              =     -10.10280167 Ry
     estimated scf accuracy    <          5.5E-09 Ry

     iteration #  7     ecut=    60.00 Ry     beta= 0.50
     Davidson diagonalization with overlap
     ethr =  1.10E-10,  avg # of iterations =  2.0

     total cpu time spent up to now is       83.5 secs

     total energy              =     -10.10280167 Ry
     estimated scf accuracy    <          2.9E-10 Ry

     iteration #  8     ecut=    60.00 Ry     beta= 0.50
     Davidson diagonalization with overlap
     ethr =  5.72E-12,  avg # of iterations =  2.0

     total cpu time spent up to now is       84.8 secs

     End of self-consistent calculation

          k = 0.0000 0.0000 0.0000 ( 61161 PWs)   bands (ev):

   -20.4851  -7.7913  -5.3541  -5.3541  -0.3062   0.4043   0.6682

     the Fermi energy is    -5.4208 ev

!    total energy              =     -10.10280167 Ry
     estimated scf accuracy    <          8.6E-12 Ry
     smearing contrib. (-TS)   =      -0.01226994 Ry
     internal energy E=F+TS    =     -10.09053173 Ry

     The total energy is F=E-TS. E is the sum of the following terms:
     one-electron contribution =     -24.25029400 Ry
     hartree contribution      =      12.66322102 Ry
     xc contribution           =      -4.35862483 Ry
     ewald contribution        =       5.85516969 Ry
     Dispersion Correction     =      -0.00000361 Ry

     convergence has been achieved in   8 iterations

     Forces acting on atoms (cartesian axes, Ry/au):

     atom    1 type  1   force =    -6.82700996    0.00000004    0.00000000
     atom    2 type  2   force =     6.82700996   -0.00000004   -0.00000000

     Total force =     6.827010     Total SCF correction =     0.000001
     Energy error            =      7.4E-01 Ry
     Gradient error          =      6.8E+00 Ry/Bohr

     number of scf cycles    =   6
     number of bfgs steps    =   5

     energy             old  =      -9.3616128493 Ry
     energy             new  =     -10.1028016666 Ry

     CASE: energy            _new < energy            _old

     new trust radius        =       0.1379122202 bohr
     new conv_thr            =            1.0E-10 Ry


ATOMIC_POSITIONS (angstrom)
H             0.0000000000        0.0000000000        0.0000000000    0   0   0
C             0.5599391212        0.0000000000        0.0000000000    1   0   0



     Writing config-only to output data dir ./pwscf.save/
     NEW-OLD atomic charge density approx. for the potential

     negative rho (up, down):  1.238E-04 0.000E+00

     total cpu time spent up to now is       85.9 secs

     Self-consistent Calculation

     iteration #  1     ecut=    60.00 Ry     beta= 0.50
     Davidson diagonalization with overlap
     ethr =  1.00E-06,  avg # of iterations =  8.0

     negative rho (up, down):  2.743E-05 0.000E+00

     total cpu time spent up to now is       88.5 secs

     total energy              =     -10.84939120 Ry
     estimated scf accuracy    <       0.01294770 Ry

     iteration #  2     ecut=    60.00 Ry     beta= 0.50
     Davidson diagonalization with overlap
     ethr =  2.59E-04,  avg # of iterations =  1.0

     negative rho (up, down):  4.993E-06 0.000E+00

     total cpu time spent up to now is       89.7 secs

     total energy              =     -10.85105259 Ry
     estimated scf accuracy    <       0.00209838 Ry

     iteration #  3     ecut=    60.00 Ry     beta= 0.50
     Davidson diagonalization with overlap
     ethr =  4.20E-05,  avg # of iterations =  1.0

     negative rho (up, down):  5.521E-08 0.000E+00

     total cpu time spent up to now is       90.9 secs

     total energy              =     -10.85123193 Ry
     estimated scf accuracy    <       0.00013009 Ry

     iteration #  4     ecut=    60.00 Ry     beta= 0.50
     Davidson diagonalization with overlap
     ethr =  2.60E-06,  avg # of iterations =  5.0

     total cpu time spent up to now is       92.5 secs

     total energy              =     -10.85123872 Ry
     estimated scf accuracy    <       0.00000196 Ry

     iteration #  5     ecut=    60.00 Ry     beta= 0.50
     Davidson diagonalization with overlap
     ethr =  3.92E-08,  avg # of iterations =  2.0

     total cpu time spent up to now is       93.9 secs

     total energy              =     -10.85123907 Ry
     estimated scf accuracy    <       0.00000014 Ry

     iteration #  6     ecut=    60.00 Ry     beta= 0.50
     Davidson diagonalization with overlap
     ethr =  2.72E-09,  avg # of iterations =  2.0

     total cpu time spent up to now is       95.2 secs

     total energy              =     -10.85123909 Ry
     estimated scf accuracy    <          8.3E-09 Ry

     iteration #  7     ecut=    60.00 Ry     beta= 0.50
     Davidson diagonalization with overlap
     ethr =  1.67E-10,  avg # of iterations =  2.0

     total cpu time spent up to now is       96.6 secs

     total energy              =     -10.85123909 Ry
     estimated scf accuracy    <          1.5E-09 Ry

     iteration #  8     ecut=    60.00 Ry     beta= 0.50
     Davidson diagonalization with overlap
     ethr =  3.08E-11,  avg # of iterations =  2.0

     total cpu time spent up to now is       97.9 secs

     End of self-consistent calculation

          k = 0.0000 0.0000 0.0000 ( 61161 PWs)   bands (ev):

   -20.1189  -7.6693  -5.2721  -5.2721  -0.3228   0.3975   0.6661

     the Fermi energy is    -5.3389 ev

!    total energy              =     -10.85123909 Ry
     estimated scf accuracy    <          4.2E-11 Ry
     smearing contrib. (-TS)   =      -0.01226994 Ry
     internal energy E=F+TS    =     -10.83896916 Ry

     The total energy is F=E-TS. E is the sum of the following terms:
     one-electron contribution =     -23.62807127 Ry
     hartree contribution      =      12.33043704 Ry
     xc contribution           =      -4.26371317 Ry
     ewald contribution        =       4.72238135 Ry
     Dispersion Correction     =      -0.00000311 Ry

     convergence has been achieved in   8 iterations

     Forces acting on atoms (cartesian axes, Ry/au):

     atom    1 type  1   force =    -4.24241708    0.00000004    0.00000000
     atom    2 type  2   force =     4.24241708   -0.00000004   -0.00000000

     Total force =     4.242417     Total SCF correction =     0.000006
     Energy error            =      7.5E-01 Ry
     Gradient error          =      4.2E+00 Ry/Bohr

     number of scf cycles    =   7
     number of bfgs steps    =   6

     energy             old  =     -10.1028016666 Ry
     energy             new  =     -10.8512390930 Ry

     CASE: energy            _new < energy            _old

     new trust radius        =       0.2068683302 bohr
     new conv_thr            =            1.0E-10 Ry


ATOMIC_POSITIONS (angstrom)
H             0.0000000000        0.0000000000        0.0000000000    0   0   0
C             0.6694091273        0.0000000000        0.0000000000    1   0   0



     Writing config-only to output data dir ./pwscf.save/
     NEW-OLD atomic charge density approx. for the potential

     negative rho (up, down):  1.663E-04 0.000E+00

     total cpu time spent up to now is       99.0 secs

     Self-consistent Calculation

     iteration #  1     ecut=    60.00 Ry     beta= 0.50
     Davidson diagonalization with overlap
     ethr =  1.00E-06,  avg # of iterations = 12.0

     negative rho (up, down):  3.450E-05 0.000E+00

     total cpu time spent up to now is      102.1 secs

     total energy              =     -11.48145305 Ry
     estimated scf accuracy    <       0.02603130 Ry

     iteration #  2     ecut=    60.00 Ry     beta= 0.50
     Davidson diagonalization with overlap
     ethr =  5.21E-04,  avg # of iterations =  1.0

     negative rho (up, down):  7.708E-06 0.000E+00

     total cpu time spent up to now is      103.3 secs

     total energy              =     -11.48458743 Ry
     estimated scf accuracy    <       0.00386131 Ry

     iteration #  3     ecut=    60.00 Ry     beta= 0.50
     Davidson diagonalization with overlap
     ethr =  7.72E-05,  avg # of iterations =  1.0

     negative rho (up, down):  9.813E-08 0.000E+00

     total cpu time spent up to now is      104.5 secs

     total energy              =     -11.48495743 Ry
     estimated scf accuracy    <       0.00029350 Ry

     iteration #  4     ecut=    60.00 Ry     beta= 0.50
     Davidson diagonalization with overlap
     ethr =  5.87E-06,  avg # of iterations =  5.0

     total cpu time spent up to now is      106.1 secs

     total energy              =     -11.48497598 Ry
     estimated scf accuracy    <       0.00000419 Ry

     iteration #  5     ecut=    60.00 Ry     beta= 0.50
     Davidson diagonalization with overlap
     ethr =  8.38E-08,  avg # of iterations =  4.0

     total cpu time spent up to now is      107.6 secs

     total energy              =     -11.48497692 Ry
     estimated scf accuracy    <       0.00000024 Ry

     iteration #  6     ecut=    60.00 Ry     beta= 0.50
     Davidson diagonalization with overlap
     ethr =  4.79E-09,  avg # of iterations =  2.0

     total cpu time spent up to now is      109.0 secs

     total energy              =     -11.48497696 Ry
     estimated scf accuracy    <       0.00000002 Ry

     iteration #  7     ecut=    60.00 Ry     beta= 0.50
     Davidson diagonalization with overlap
     ethr =  3.18E-10,  avg # of iterations =  2.0

     total cpu time spent up to now is      110.4 secs

     total energy              =     -11.48497695 Ry
     estimated scf accuracy    <          3.5E-09 Ry

     iteration #  8     ecut=    60.00 Ry     beta= 0.50
     Davidson diagonalization with overlap
     ethr =  6.99E-11,  avg # of iterations =  2.0

     total cpu time spent up to now is      111.7 secs

     End of self-consistent calculation

          k = 0.0000 0.0000 0.0000 ( 61161 PWs)   bands (ev):

   -19.2989  -7.5141  -5.2060  -5.2060  -0.3427   0.3923   0.6637

     the Fermi energy is    -5.2728 ev

!    total energy              =     -11.48497695 Ry
     estimated scf accuracy    <          7.0E-11 Ry
     smearing contrib. (-TS)   =      -0.01226994 Ry
     internal energy E=F+TS    =     -11.47270701 Ry

     The total energy is F=E-TS. E is the sum of the following terms:
     one-electron contribution =     -22.67478498 Ry
     hartree contribution      =      11.83718972 Ry
     xc contribution           =      -4.12162481 Ry
     ewald contribution        =       3.48651588 Ry
     Dispersion Correction     =      -0.00000282 Ry

     convergence has been achieved in   8 iterations

     Forces acting on atoms (cartesian axes, Ry/au):

     atom    1 type  1   force =    -2.14245416    0.00000002    0.00000000
     atom    2 type  2   force =     2.14245416   -0.00000002   -0.00000000

     Total force =     2.142454     Total SCF correction =     0.000003
     Energy error            =      6.3E-01 Ry
     Gradient error          =      2.1E+00 Ry/Bohr

     number of scf cycles    =   8
     number of bfgs steps    =   7

     energy             old  =     -10.8512390930 Ry
     energy             new  =     -11.4849769487 Ry

     CASE: energy            _new < energy            _old

     new trust radius        =       0.2110541624 bohr
     new conv_thr            =            1.0E-10 Ry


ATOMIC_POSITIONS (angstrom)
H             0.0000000000        0.0000000000        0.0000000000    0   0   0
C             0.7810941803        0.0000000000        0.0000000000    1   0   0



     Writing config-only to output data dir ./pwscf.save/
     NEW-OLD atomic charge density approx. for the potential

     negative rho (up, down):  8.462E-05 0.000E+00

     total cpu time spent up to now is      112.7 secs

     Self-consistent Calculation

     iteration #  1     ecut=    60.00 Ry     beta= 0.50
     Davidson diagonalization with overlap
     ethr =  1.00E-06,  avg # of iterations = 10.0

     negative rho (up, down):  3.383E-05 0.000E+00

     total cpu time spent up to now is      115.7 secs

     total energy              =     -11.81009809 Ry
     estimated scf accuracy    <       0.02062208 Ry

     iteration #  2     ecut=    60.00 Ry     beta= 0.50
     Davidson diagonalization with overlap
     ethr =  4.12E-04,  avg # of iterations =  1.0

     negative rho (up, down):  8.310E-06 0.000E+00

     total cpu time spent up to now is      116.9 secs

     total energy              =     -11.81261934 Ry
     estimated scf accuracy    <       0.00296982 Ry

     iteration #  3     ecut=    60.00 Ry     beta= 0.50
     Davidson diagonalization with overlap
     ethr =  5.94E-05,  avg # of iterations =  1.0

     negative rho (up, down):  5.810E-08 0.000E+00

     total cpu time spent up to now is      118.1 secs

     total energy              =     -11.81290808 Ry
     estimated scf accuracy    <       0.00025681 Ry

     iteration #  4     ecut=    60.00 Ry     beta= 0.50
     Davidson diagonalization with overlap
     ethr =  5.14E-06,  avg # of iterations =  5.0

     total cpu time spent up to now is      119.7 secs

     total energy              =     -11.81292364 Ry
     estimated scf accuracy    <       0.00000276 Ry

     iteration #  5     ecut=    60.00 Ry     beta= 0.50
     Davidson diagonalization with overlap
     ethr =  5.52E-08,  avg # of iterations =  4.0

     total cpu time spent up to now is      121.2 secs

     total energy              =     -11.81292443 Ry
     estimated scf accuracy    <       0.00000021 Ry

     iteration #  6     ecut=    60.00 Ry     beta= 0.50
     Davidson diagonalization with overlap
     ethr =  4.15E-09,  avg # of iterations =  2.0

     total cpu time spent up to now is      122.6 secs

     total energy              =     -11.81292446 Ry
     estimated scf accuracy    <       0.00000002 Ry

     iteration #  7     ecut=    60.00 Ry     beta= 0.50
     Davidson diagonalization with overlap
     ethr =  3.06E-10,  avg # of iterations =  2.0

     total cpu time spent up to now is      124.0 secs

     total energy              =     -11.81292446 Ry
     estimated scf accuracy    <          4.2E-09 Ry

     iteration #  8     ecut=    60.00 Ry     beta= 0.50
     Davidson diagonalization with overlap
     ethr =  8.32E-11,  avg # of iterations =  2.0

     total cpu time spent up to now is      125.3 secs

     End of self-consistent calculation

          k = 0.0000 0.0000 0.0000 ( 61161 PWs)   bands (ev):

   -18.3458  -7.4448  -5.1578  -5.1578  -0.3579   0.3899   0.6622

     the Fermi energy is    -5.2246 ev

!    total energy              =     -11.81292446 Ry
     estimated scf accuracy    <          6.3E-11 Ry
     smearing contrib. (-TS)   =      -0.01226994 Ry
     internal energy E=F+TS    =     -11.80065452 Ry

     The total energy is F=E-TS. E is the sum of the following terms:
     one-electron contribution =     -21.76971302 Ry
     hartree contribution      =      11.37911885 Ry
     xc contribution           =      -3.99294523 Ry
     ewald contribution        =       2.58288768 Ry
     Dispersion Correction     =      -0.00000280 Ry

     convergence has been achieved in   8 iterations

     Forces acting on atoms (cartesian axes, Ry/au):

     atom    1 type  1   force =    -1.08216091    0.00000002    0.00000000
     atom    2 type  2   force =     1.08216091   -0.00000002   -0.00000000

     Total force =     1.082161     Total SCF correction =     0.000006
     Energy error            =      3.3E-01 Ry
     Gradient error          =      1.1E+00 Ry/Bohr

     number of scf cycles    =   9
     number of bfgs steps    =   8

     energy             old  =     -11.4849769487 Ry
     energy             new  =     -11.8129244594 Ry

     CASE: energy            _new < energy            _old

     new trust radius        =       0.2154069776 bohr
     new conv_thr            =            1.0E-10 Ry


ATOMIC_POSITIONS (angstrom)
H             0.0000000000        0.0000000000        0.0000000000    0   0   0
C             0.8950826439        0.0000000000        0.0000000000    1   0   0



     Writing config-only to output data dir ./pwscf.save/
     NEW-OLD atomic charge density approx. for the potential

     negative rho (up, down):  7.857E-05 0.000E+00

     total cpu time spent up to now is      126.3 secs

     Self-consistent Calculation

     iteration #  1     ecut=    60.00 Ry     beta= 0.50
     Davidson diagonalization with overlap
     ethr =  1.00E-06,  avg # of iterations = 10.0

     negative rho (up, down):  3.371E-05 0.000E+00

     total cpu time spent up to now is      129.3 secs

     total energy              =     -11.97506366 Ry
     estimated scf accuracy    <       0.01573028 Ry

     iteration #  2     ecut=    60.00 Ry     beta= 0.50
     Davidson diagonalization with overlap
     ethr =  3.15E-04,  avg # of iterations =  2.0

     negative rho (up, down):  8.687E-06 0.000E+00

     total cpu time spent up to now is      130.6 secs

     total energy              =     -11.97708064 Ry
     estimated scf accuracy    <       0.00223621 Ry

     iteration #  3     ecut=    60.00 Ry     beta= 0.50
     Davidson diagonalization with overlap
     ethr =  4.47E-05,  avg # of iterations =  1.0

     total cpu time spent up to now is      131.8 secs

     total energy              =     -11.97730338 Ry
     estimated scf accuracy    <       0.00023342 Ry

     iteration #  4     ecut=    60.00 Ry     beta= 0.50
     Davidson diagonalization with overlap
     ethr =  4.67E-06,  avg # of iterations =  5.0

     total cpu time spent up to now is      133.4 secs

     total energy              =     -11.97731630 Ry
     estimated scf accuracy    <       0.00000188 Ry

     iteration #  5     ecut=    60.00 Ry     beta= 0.50
     Davidson diagonalization with overlap
     ethr =  3.76E-08,  avg # of iterations =  2.0

     total cpu time spent up to now is      134.8 secs

     total energy              =     -11.97731698 Ry
     estimated scf accuracy    <       0.00000016 Ry

     iteration #  6     ecut=    60.00 Ry     beta= 0.50
     Davidson diagonalization with overlap
     ethr =  3.16E-09,  avg # of iterations =  2.0

     total cpu time spent up to now is      136.2 secs

     total energy              =     -11.97731701 Ry
     estimated scf accuracy    <       0.00000001 Ry

     iteration #  7     ecut=    60.00 Ry     beta= 0.50
     Davidson diagonalization with overlap
     ethr =  2.89E-10,  avg # of iterations =  2.0

     total cpu time spent up to now is      137.5 secs

     total energy              =     -11.97731701 Ry
     estimated scf accuracy    <          1.5E-09 Ry

     iteration #  8     ecut=    60.00 Ry     beta= 0.50
     Davidson diagonalization with overlap
     ethr =  2.98E-11,  avg # of iterations =  2.0

     total cpu time spent up to now is      138.9 secs

     total energy              =     -11.97731701 Ry
     estimated scf accuracy    <          2.7E-10 Ry

     iteration #  9     ecut=    60.00 Ry     beta= 0.50
     Davidson diagonalization with overlap
     ethr =  5.40E-12,  avg # of iterations =  2.0

     total cpu time spent up to now is      140.2 secs

     End of self-consistent calculation

          k = 0.0000 0.0000 0.0000 ( 61161 PWs)   bands (ev):

   -17.3880  -7.4469  -5.1191  -5.1191  -0.3730   0.3855   0.6608

     the Fermi energy is    -5.1859 ev

!    total energy              =     -11.97731701 Ry
     estimated scf accuracy    <          9.2E-12 Ry
     smearing contrib. (-TS)   =      -0.01226994 Ry
     internal energy E=F+TS    =     -11.96504707 Ry

     The total energy is F=E-TS. E is the sum of the following terms:
     one-electron contribution =     -20.94288308 Ry
     hartree contribution      =      10.96531213 Ry
     xc contribution           =      -3.88088612 Ry
     ewald contribution        =       1.89341297 Ry
     Dispersion Correction     =      -0.00000298 Ry

     convergence has been achieved in   9 iterations

     Forces acting on atoms (cartesian axes, Ry/au):

     atom    1 type  1   force =    -0.50268335    0.00000002    0.00000000
     atom    2 type  2   force =     0.50268335   -0.00000002   -0.00000000

     Total force =     0.502683     Total SCF correction =     0.000003
     Energy error            =      1.6E-01 Ry
     Gradient error          =      5.0E-01 Ry/Bohr

     number of scf cycles    =  10
     number of bfgs steps    =   9

     energy             old  =     -11.8129244594 Ry
     energy             new  =     -11.9773170098 Ry

     CASE: energy            _new < energy            _old

     new trust radius        =       0.1868605608 bohr
     new conv_thr            =            1.0E-10 Ry


ATOMIC_POSITIONS (angstrom)
H             0.0000000000        0.0000000000        0.0000000000    0   0   0
C             0.9939649943        0.0000000000        0.0000000000    1   0   0



     Writing config-only to output data dir ./pwscf.save/
     NEW-OLD atomic charge density approx. for the potential

     negative rho (up, down):  7.060E-05 0.000E+00

     total cpu time spent up to now is      141.3 secs

     Self-consistent Calculation

     iteration #  1     ecut=    60.00 Ry     beta= 0.50
     Davidson diagonalization with overlap
     ethr =  1.00E-06,  avg # of iterations =  9.0

     negative rho (up, down):  3.075E-05 0.000E+00

     total cpu time spent up to now is      144.2 secs

     total energy              =     -12.04070071 Ry
     estimated scf accuracy    <       0.00927482 Ry

     iteration #  2     ecut=    60.00 Ry     beta= 0.50
     Davidson diagonalization with overlap
     ethr =  1.85E-04,  avg # of iterations =  2.0

     negative rho (up, down):  8.489E-06 0.000E+00

     total cpu time spent up to now is      145.5 secs

     total energy              =     -12.04192458 Ry
     estimated scf accuracy    <       0.00131248 Ry

     iteration #  3     ecut=    60.00 Ry     beta= 0.50
     Davidson diagonalization with overlap
     ethr =  2.62E-05,  avg # of iterations =  1.0

     total cpu time spent up to now is      146.7 secs

     total energy              =     -12.04205738 Ry
     estimated scf accuracy    <       0.00016090 Ry

     iteration #  4     ecut=    60.00 Ry     beta= 0.50
     Davidson diagonalization with overlap
     ethr =  3.22E-06,  avg # of iterations =  5.0

     total cpu time spent up to now is      148.2 secs

     total energy              =     -12.04206558 Ry
     estimated scf accuracy    <       0.00000129 Ry

     iteration #  5     ecut=    60.00 Ry     beta= 0.50
     Davidson diagonalization with overlap
     ethr =  2.58E-08,  avg # of iterations =  2.0

     total cpu time spent up to now is      149.7 secs

     total energy              =     -12.04206579 Ry
     estimated scf accuracy    <       0.00000041 Ry

     iteration #  6     ecut=    60.00 Ry     beta= 0.50
     Davidson diagonalization with overlap
     ethr =  8.17E-09,  avg # of iterations =  2.0

     total cpu time spent up to now is      151.0 secs

     total energy              =     -12.04206587 Ry
     estimated scf accuracy    <       0.00000017 Ry

     iteration #  7     ecut=    60.00 Ry     beta= 0.50
     Davidson diagonalization with overlap
     ethr =  3.43E-09,  avg # of iterations =  2.0

     total cpu time spent up to now is      152.4 secs

     total energy              =     -12.04206590 Ry
     estimated scf accuracy    <          1.4E-09 Ry

     iteration #  8     ecut=    60.00 Ry     beta= 0.50
     Davidson diagonalization with overlap
     ethr =  2.90E-11,  avg # of iterations =  3.0

     total cpu time spent up to now is      153.9 secs

     total energy              =     -12.04206590 Ry
     estimated scf accuracy    <          7.5E-10 Ry

     iteration #  9     ecut=    60.00 Ry     beta= 0.50
     Davidson diagonalization with overlap
     ethr =  1.50E-11,  avg # of iterations =  2.0

     total cpu time spent up to now is      155.2 secs

     End of self-consistent calculation

          k = 0.0000 0.0000 0.0000 ( 61161 PWs)   bands (ev):

   -16.6309  -7.4754  -5.0995  -5.0995  -0.3908   0.3757   0.6589

     the Fermi energy is    -5.1663 ev

!    total energy              =     -12.04206590 Ry
     estimated scf accuracy    <          2.8E-11 Ry
     smearing contrib. (-TS)   =      -0.01226994 Ry
     internal energy E=F+TS    =     -12.02979596 Ry

     The total energy is F=E-TS. E is the sum of the following terms:
     one-electron contribution =     -20.30104871 Ry
     hartree contribution      =      10.64461062 Ry
     xc contribution           =      -3.79697790 Ry
     ewald contribution        =       1.42362333 Ry
     Dispersion Correction     =      -0.00000330 Ry

     convergence has been achieved in   9 iterations

     Forces acting on atoms (cartesian axes, Ry/au):

     atom    1 type  1   force =    -0.21631341   -0.00000000   -0.00000000
     atom    2 type  2   force =     0.21631341    0.00000000    0.00000000

     Total force =     0.216313     Total SCF correction =     0.000001
     Energy error            =      6.5E-02 Ry
     Gradient error          =      2.2E-01 Ry/Bohr

     number of scf cycles    =  11
     number of bfgs steps    =  10

     energy             old  =     -11.9773170098 Ry
     energy             new  =     -12.0420658991 Ry

     CASE: energy            _new < energy            _old

     new trust radius        =       0.1411476540 bohr
     new conv_thr            =            1.0E-10 Ry


ATOMIC_POSITIONS (angstrom)
H             0.0000000000        0.0000000000        0.0000000000    0   0   0
C             1.0686571161        0.0000000000        0.0000000000    1   0   0



     Writing config-only to output data dir ./pwscf.save/
     NEW-OLD atomic charge density approx. for the potential

     negative rho (up, down):  5.574E-05 0.000E+00

     total cpu time spent up to now is      156.3 secs

     Self-consistent Calculation

     iteration #  1     ecut=    60.00 Ry     beta= 0.50
     Davidson diagonalization with overlap
     ethr =  1.00E-06,  avg # of iterations =  8.0

     negative rho (up, down):  2.450E-05 0.000E+00

     total cpu time spent up to now is      158.9 secs

     total energy              =     -12.06170876 Ry
     estimated scf accuracy    <       0.00451665 Ry

     iteration #  2     ecut=    60.00 Ry     beta= 0.50
     Davidson diagonalization with overlap
     ethr =  9.03E-05,  avg # of iterations =  2.0

     negative rho (up, down):  7.328E-06 0.000E+00

     total cpu time spent up to now is      160.2 secs

     total energy              =     -12.06232338 Ry
     estimated scf accuracy    <       0.00063115 Ry

     iteration #  3     ecut=    60.00 Ry     beta= 0.50
     Davidson diagonalization with overlap
     ethr =  1.26E-05,  avg # of iterations =  1.0

     negative rho (up, down):  3.346E-08 0.000E+00

     total cpu time spent up to now is      161.4 secs

     total energy              =     -12.06238365 Ry
     estimated scf accuracy    <       0.00008850 Ry

     iteration #  4     ecut=    60.00 Ry     beta= 0.50
     Davidson diagonalization with overlap
     ethr =  1.77E-06,  avg # of iterations =  5.0

     total cpu time spent up to now is      163.0 secs

     total energy              =     -12.06238765 Ry
     estimated scf accuracy    <       0.00000074 Ry

     iteration #  5     ecut=    60.00 Ry     beta= 0.50
     Davidson diagonalization with overlap
     ethr =  1.48E-08,  avg # of iterations =  2.0

     total cpu time spent up to now is      164.4 secs

     total energy              =     -12.06238776 Ry
     estimated scf accuracy    <       0.00000018 Ry

     iteration #  6     ecut=    60.00 Ry     beta= 0.50
     Davidson diagonalization with overlap
     ethr =  3.54E-09,  avg # of iterations =  2.0

     total cpu time spent up to now is      165.7 secs

     total energy              =     -12.06238780 Ry
     estimated scf accuracy    <       0.00000007 Ry

     iteration #  7     ecut=    60.00 Ry     beta= 0.50
     Davidson diagonalization with overlap
     ethr =  1.37E-09,  avg # of iterations =  2.0

     total cpu time spent up to now is      167.1 secs

     total energy              =     -12.06238781 Ry
     estimated scf accuracy    <          5.3E-10 Ry

     iteration #  8     ecut=    60.00 Ry     beta= 0.50
     Davidson diagonalization with overlap
     ethr =  1.07E-11,  avg # of iterations =  3.0

     total cpu time spent up to now is      168.6 secs

     total energy              =     -12.06238781 Ry
     estimated scf accuracy    <          1.2E-09 Ry

     iteration #  9     ecut=    60.00 Ry     beta= 0.50
     Davidson diagonalization with overlap
     ethr =  1.07E-11,  avg # of iterations =  2.0

     total cpu time spent up to now is      169.9 secs

     End of self-consistent calculation

          k = 0.0000 0.0000 0.0000 ( 61161 PWs)   bands (ev):

   -16.1213  -7.5012  -5.0948  -5.0948  -0.4116   0.3605   0.6570

     the Fermi energy is    -5.1616 ev

!    total energy              =     -12.06238781 Ry
     estimated scf accuracy    <          6.2E-12 Ry
     smearing contrib. (-TS)   =      -0.01226994 Ry
     internal energy E=F+TS    =     -12.05011787 Ry

     The total energy is F=E-TS. E is the sum of the following terms:
     one-electron contribution =     -19.85886032 Ry
     hartree contribution      =      10.42295708 Ry
     xc contribution           =      -3.74075156 Ry
     ewald contribution        =       1.12654061 Ry
     Dispersion Correction     =      -0.00000368 Ry

     convergence has been achieved in   9 iterations

     Forces acting on atoms (cartesian axes, Ry/au):

     atom    1 type  1   force =    -0.08163753   -0.00000000   -0.00000000
     atom    2 type  2   force =     0.08163753    0.00000000    0.00000000

     Total force =     0.081638     Total SCF correction =     0.000001
     Energy error            =      2.0E-02 Ry
     Gradient error          =      8.2E-02 Ry/Bohr

     number of scf cycles    =  12
     number of bfgs steps    =  11

     energy             old  =     -12.0420658991 Ry
     energy             new  =     -12.0623878080 Ry

     CASE: energy            _new < energy            _old

     new trust radius        =       0.0855605784 bohr
     new conv_thr            =            8.2E-11 Ry


ATOMIC_POSITIONS (angstrom)
H             0.0000000000        0.0000000000        0.0000000000    0   0   0
C             1.1139338244        0.0000000000        0.0000000000    1   0   0



     Writing config-only to output data dir ./pwscf.save/
     NEW-OLD atomic charge density approx. for the potential

     negative rho (up, down):  3.379E-05 0.000E+00

     total cpu time spent up to now is      170.9 secs

     Self-consistent Calculation

     iteration #  1     ecut=    60.00 Ry     beta= 0.50
     Davidson diagonalization with overlap
     ethr =  1.00E-06,  avg # of iterations =  6.0

     negative rho (up, down):  1.498E-05 0.000E+00

     total cpu time spent up to now is      173.1 secs

     total energy              =     -12.06656547 Ry
     estimated scf accuracy    <       0.00153186 Ry

     iteration #  2     ecut=    60.00 Ry     beta= 0.50
     Davidson diagonalization with overlap
     ethr =  3.06E-05,  avg # of iterations =  2.0

     negative rho (up, down):  4.924E-06 0.000E+00

     total cpu time spent up to now is      174.5 secs

     total energy              =     -12.06678931 Ry
     estimated scf accuracy    <       0.00022536 Ry

     iteration #  3     ecut=    60.00 Ry     beta= 0.50
     Davidson diagonalization with overlap
     ethr =  4.51E-06,  avg # of iterations =  1.0

     negative rho (up, down):  1.570E-08 0.000E+00

     total cpu time spent up to now is      175.7 secs

     total energy              =     -12.06680945 Ry
     estimated scf accuracy    <       0.00003335 Ry

     iteration #  4     ecut=    60.00 Ry     beta= 0.50
     Davidson diagonalization with overlap
     ethr =  6.67E-07,  avg # of iterations =  4.0

     negative rho (up, down):  1.636E-08 0.000E+00

     total cpu time spent up to now is      177.2 secs

     total energy              =     -12.06681103 Ry
     estimated scf accuracy    <       0.00000047 Ry

     iteration #  5     ecut=    60.00 Ry     beta= 0.50
     Davidson diagonalization with overlap
     ethr =  9.44E-09,  avg # of iterations =  2.0

     total cpu time spent up to now is      178.5 secs

     total energy              =     -12.06681113 Ry
     estimated scf accuracy    <       0.00000011 Ry

     iteration #  6     ecut=    60.00 Ry     beta= 0.50
     Davidson diagonalization with overlap
     ethr =  2.29E-09,  avg # of iterations =  1.0

     total cpu time spent up to now is      179.7 secs

     total energy              =     -12.06681112 Ry
     estimated scf accuracy    <          1.0E-08 Ry

     iteration #  7     ecut=    60.00 Ry     beta= 0.50
     Davidson diagonalization with overlap
     ethr =  2.00E-10,  avg # of iterations =  2.0

     total cpu time spent up to now is      181.1 secs

     total energy              =     -12.06681113 Ry
     estimated scf accuracy    <          4.5E-09 Ry

     iteration #  8     ecut=    60.00 Ry     beta= 0.50
     Davidson diagonalization with overlap
     ethr =  8.96E-11,  avg # of iterations =  1.0

     total cpu time spent up to now is      182.4 secs

     total energy              =     -12.06681113 Ry
     estimated scf accuracy    <          2.2E-09 Ry

     iteration #  9     ecut=    60.00 Ry     beta= 0.50
     Davidson diagonalization with overlap
     ethr =  4.38E-11,  avg # of iterations =  2.0

     total cpu time spent up to now is      183.6 secs

     End of self-consistent calculation

          k = 0.0000 0.0000 0.0000 ( 61161 PWs)   bands (ev):

   -15.8408  -7.5164  -5.0956  -5.0956  -0.4297   0.3463   0.6556

     the Fermi energy is    -5.1624 ev

!    total energy              =     -12.06681113 Ry
     estimated scf accuracy    <          6.8E-11 Ry
     smearing contrib. (-TS)   =      -0.01226994 Ry
     internal energy E=F+TS    =     -12.05454119 Ry

     The total energy is F=E-TS. E is the sum of the following terms:
     one-electron contribution =     -19.60748210 Ry
     hartree contribution      =      10.29653373 Ry
     xc contribution           =      -3.70950067 Ry
     ewald contribution        =       0.96591184 Ry
     Dispersion Correction     =      -0.00000399 Ry

     convergence has been achieved in   9 iterations

     Forces acting on atoms (cartesian axes, Ry/au):

     atom    1 type  1   force =    -0.02388813   -0.00000000   -0.00000000
     atom    2 type  2   force =     0.02388813    0.00000000    0.00000000

     Total force =     0.023888     Total SCF correction =     0.000007
     Energy error            =      4.4E-03 Ry
     Gradient error          =      2.4E-02 Ry/Bohr

     number of scf cycles    =  13
     number of bfgs steps    =  12

     energy             old  =     -12.0623878080 Ry
     energy             new  =     -12.0668111300 Ry

     CASE: energy            _new < energy            _old

     new trust radius        =       0.0353922690 bohr
     new conv_thr            =            2.4E-11 Ry


ATOMIC_POSITIONS (angstrom)
H             0.0000000000        0.0000000000        0.0000000000    0   0   0
C             1.1326626065        0.0000000000        0.0000000000    1   0   0



     Writing config-only to output data dir ./pwscf.save/
     NEW-OLD atomic charge density approx. for the potential

     negative rho (up, down):  1.254E-05 0.000E+00

     total cpu time spent up to now is      184.7 secs

     Self-consistent Calculation

     iteration #  1     ecut=    60.00 Ry     beta= 0.50
     Davidson diagonalization with overlap
     ethr =  1.00E-06,  avg # of iterations =  5.0

     negative rho (up, down):  5.451E-06 0.000E+00

     total cpu time spent up to now is      186.7 secs

     total energy              =     -12.06725858 Ry
     estimated scf accuracy    <       0.00025032 Ry

     iteration #  2     ecut=    60.00 Ry     beta= 0.50
     Davidson diagonalization with overlap
     ethr =  5.01E-06,  avg # of iterations =  2.0

     negative rho (up, down):  1.683E-06 0.000E+00

     total cpu time spent up to now is      188.0 secs

     total energy              =     -12.06729303 Ry
     estimated scf accuracy    <       0.00003636 Ry

     iteration #  3     ecut=    60.00 Ry     beta= 0.50
     Davidson diagonalization with overlap
     ethr =  7.27E-07,  avg # of iterations =  1.0

     total cpu time spent up to now is      189.2 secs

     total energy              =     -12.06729594 Ry
     estimated scf accuracy    <       0.00000530 Ry

     iteration #  4     ecut=    60.00 Ry     beta= 0.50
     Davidson diagonalization with overlap
     ethr =  1.06E-07,  avg # of iterations =  1.0

     total cpu time spent up to now is      190.4 secs

     total energy              =     -12.06729615 Ry
     estimated scf accuracy    <       0.00000008 Ry

     iteration #  5     ecut=    60.00 Ry     beta= 0.50
     Davidson diagonalization with overlap
     ethr =  1.63E-09,  avg # of iterations =  2.0

     total cpu time spent up to now is      191.8 secs

     total energy              =     -12.06729616 Ry
     estimated scf accuracy    <       0.00000001 Ry

     iteration #  6     ecut=    60.00 Ry     beta= 0.50
     Davidson diagonalization with overlap
     ethr =  2.16E-10,  avg # of iterations =  1.0

     total cpu time spent up to now is      193.0 secs

     total energy              =     -12.06729615 Ry
     estimated scf accuracy    <          3.8E-10 Ry

     iteration #  7     ecut=    60.00 Ry     beta= 0.50
     Davidson diagonalization with overlap
     ethr =  7.59E-12,  avg # of iterations =  3.0

     total cpu time spent up to now is      194.5 secs

     total energy              =     -12.06729616 Ry
     estimated scf accuracy    <          2.6E-10 Ry

     iteration #  8     ecut=    60.00 Ry     beta= 0.50
     Davidson diagonalization with overlap
     ethr =  5.17E-12,  avg # of iterations =  1.0

     total cpu time spent up to now is      195.7 secs

     total energy              =     -12.06729616 Ry
     estimated scf accuracy    <          1.1E-10 Ry

     iteration #  9     ecut=    60.00 Ry     beta= 0.50
     Davidson diagonalization with overlap
     ethr =  2.17E-12,  avg # of iterations =  2.0

     total cpu time spent up to now is      197.0 secs

     End of self-consistent calculation

          k = 0.0000 0.0000 0.0000 ( 61161 PWs)   bands (ev):

   -15.7310  -7.5220  -5.0970  -5.0970  -0.4387   0.3391   0.6550

     the Fermi energy is    -5.1638 ev

!    total energy              =     -12.06729616 Ry
     estimated scf accuracy    <          7.9E-13 Ry
     smearing contrib. (-TS)   =      -0.01226994 Ry
     internal energy E=F+TS    =     -12.05502622 Ry

     The total energy is F=E-TS. E is the sum of the following terms:
     one-electron contribution =     -19.50699119 Ry
     hartree contribution      =      10.24587780 Ry
     xc contribution           =      -3.69714482 Ry
     ewald contribution        =       0.90323612 Ry
     Dispersion Correction     =      -0.00000413 Ry

     convergence has been achieved in   9 iterations

     Forces acting on atoms (cartesian axes, Ry/au):

     atom    1 type  1   force =    -0.00372901   -0.00000000   -0.00000000
     atom    2 type  2   force =     0.00372901    0.00000000    0.00000000

     Total force =     0.003729     Total SCF correction =     0.000001
     Energy error            =      4.9E-04 Ry
     Gradient error          =      3.7E-03 Ry/Bohr

     number of scf cycles    =  14
     number of bfgs steps    =  13

     energy             old  =     -12.0668111300 Ry
     energy             new  =     -12.0672961550 Ry

     CASE: energy            _new < energy            _old

     new trust radius        =       0.0065468124 bohr
     new conv_thr            =            3.7E-12 Ry


ATOMIC_POSITIONS (angstrom)
H             0.0000000000        0.0000000000        0.0000000000    0   0   0
C             1.1361270305        0.0000000000        0.0000000000    1   0   0



     Writing config-only to output data dir ./pwscf.save/
     NEW-OLD atomic charge density approx. for the potential

     negative rho (up, down):  1.583E-06 0.000E+00

     total cpu time spent up to now is      198.1 secs

     Self-consistent Calculation

     iteration #  1     ecut=    60.00 Ry     beta= 0.50
     Davidson diagonalization with overlap
     ethr =  1.00E-06,  avg # of iterations =  3.0

     negative rho (up, down):  6.100E-07 0.000E+00

     total cpu time spent up to now is      199.6 secs

     total energy              =     -12.06730645 Ry
     estimated scf accuracy    <       0.00000860 Ry

     iteration #  2     ecut=    60.00 Ry     beta= 0.50
     Davidson diagonalization with overlap
     ethr =  1.72E-07,  avg # of iterations =  2.0

     negative rho (up, down):  1.726E-07 0.000E+00

     total cpu time spent up to now is      201.0 secs

     total energy              =     -12.06730819 Ry
     estimated scf accuracy    <       0.00000141 Ry

     iteration #  3     ecut=    60.00 Ry     beta= 0.50
     Davidson diagonalization with overlap
     ethr =  2.82E-08,  avg # of iterations =  1.0

     total cpu time spent up to now is      202.2 secs

     total energy              =     -12.06730828 Ry
     estimated scf accuracy    <       0.00000027 Ry

     iteration #  4     ecut=    60.00 Ry     beta= 0.50
     Davidson diagonalization with overlap
     ethr =  5.36E-09,  avg # of iterations =  1.0

     total cpu time spent up to now is      203.4 secs

     total energy              =     -12.06730830 Ry
     estimated scf accuracy    <          6.0E-09 Ry

     iteration #  5     ecut=    60.00 Ry     beta= 0.50
     Davidson diagonalization with overlap
     ethr =  1.21E-10,  avg # of iterations =  2.0

     total cpu time spent up to now is      204.7 secs

     total energy              =     -12.06730830 Ry
     estimated scf accuracy    <          7.3E-10 Ry

     iteration #  6     ecut=    60.00 Ry     beta= 0.50
     Davidson diagonalization with overlap
     ethr =  1.46E-11,  avg # of iterations =  2.0

     total cpu time spent up to now is      206.0 secs

     total energy              =     -12.06730830 Ry
     estimated scf accuracy    <          1.1E-10 Ry

     iteration #  7     ecut=    60.00 Ry     beta= 0.50
     Davidson diagonalization with overlap
     ethr =  2.25E-12,  avg # of iterations =  2.0

     total cpu time spent up to now is      207.3 secs

     End of self-consistent calculation

          k = 0.0000 0.0000 0.0000 ( 61161 PWs)   bands (ev):

   -15.7112  -7.5230  -5.0974  -5.0974  -0.4405   0.3377   0.6549

     the Fermi energy is    -5.1642 ev

!    total energy              =     -12.06730830 Ry
     estimated scf accuracy    <          1.6E-12 Ry
     smearing contrib. (-TS)   =      -0.01226994 Ry
     internal energy E=F+TS    =     -12.05503836 Ry

     The total energy is F=E-TS. E is the sum of the following terms:
     one-electron contribution =     -19.48862137 Ry
     hartree contribution      =      10.23660898 Ry
     xc contribution           =      -3.69489164 Ry
     ewald contribution        =       0.89186983 Ry
     Dispersion Correction     =      -0.00000416 Ry

     convergence has been achieved in   7 iterations

     Forces acting on atoms (cartesian axes, Ry/au):

     atom    1 type  1   force =    -0.00023505    0.00000000   -0.00000000
     atom    2 type  2   force =     0.00023505   -0.00000000    0.00000000

     Total force =     0.000235     Total SCF correction =     0.000001
     Energy error            =      1.2E-05 Ry
     Gradient error          =      2.4E-04 Ry/Bohr

     bfgs converged in  15 scf cycles and  14 bfgs steps
     (criteria: energy <  1.0E-04 Ry, force <  1.0E-03 Ry/Bohr)

     End of BFGS Geometry Optimization

     Final energy             =     -12.0673082971 Ry

     File ./pwscf.bfgs deleted, as requested
Begin final coordinates

ATOMIC_POSITIONS (angstrom)
H             0.0000000000        0.0000000000        0.0000000000    0   0   0
C             1.1361270305        0.0000000000        0.0000000000    1   0   0
End final coordinates



     Writing all to output data dir ./pwscf.save/

     init_run     :      2.11s CPU      2.22s WALL (       1 calls)
     electrons    :    320.57s CPU    191.18s WALL (      15 calls)
     update_pot   :      8.86s CPU      9.76s WALL (      14 calls)
     forces       :      5.11s CPU      3.30s WALL (      15 calls)
     force_london :      0.01s CPU      0.01s WALL (      15 calls)

     Called by init_run:
     wfcinit      :      0.67s CPU      0.63s WALL (       1 calls)
     potinit      :      0.53s CPU      0.62s WALL (       1 calls)
     hinit0       :      0.78s CPU      0.83s WALL (       1 calls)

     Called by electrons:
     c_bands      :    199.61s CPU     96.00s WALL (     129 calls)
     sum_band     :     58.31s CPU     27.67s WALL (     129 calls)
     v_of_rho     :     56.28s CPU     61.11s WALL (     144 calls)
     mix_rho      :     10.42s CPU     10.28s WALL (     129 calls)
     energy_londo :      0.02s CPU      0.01s WALL (      15 calls)

     Called by c_bands:
     init_us_2    :      1.46s CPU      0.45s WALL (     259 calls)
     init_us_2:cp :      1.46s CPU      0.45s WALL (     259 calls)
     regterg      :    199.38s CPU     95.80s WALL (     129 calls)

     Called by *egterg:
     rdiaghg      :      0.23s CPU      0.05s WALL (     465 calls)
     h_psi        :    173.58s CPU     91.31s WALL (     480 calls)
     g_psi        :      3.12s CPU      0.65s WALL (     350 calls)

     Called by h_psi:
     h_psi:calbec :      0.72s CPU      0.23s WALL (     480 calls)
     vloc_psi     :    170.65s CPU     90.57s WALL (     480 calls)
     add_vuspsi   :      0.97s CPU      0.17s WALL (     480 calls)

     General routines
     calbec       :      0.86s CPU      0.28s WALL (     540 calls)
     fft          :     37.14s CPU     36.13s WALL (    1181 calls)
     ffts         :      4.34s CPU      4.35s WALL (     129 calls)
     fftw         :    193.05s CPU     96.75s WALL (    3478 calls)

     Parallel routines

     PWSCF        :   5m37.54s CPU   3m27.81s WALL


   This run was terminated on:  15: 3:49   5Sep2022            

=------------------------------------------------------------------------------=
   JOB DONE.
=------------------------------------------------------------------------------=
