LAMMPS data file. CGCMM style. atom_style atomic generated by VMD/TopoTools v1.7 on Wed Feb 26 01:17:06 CET 2025
 96 atoms
 2 atom types
0 10.260   xlo xhi
0 10.260   ylo yhi
0 10.260   zlo zhi

 Masses

 1 1.007940 # H
 2 15.999400 # O

 Atoms # atomic

1 2 3.756000 4.710000 9.494000 # O
2 1 4.604000 4.272000 9.671000 # H
3 1 3.998000 5.320000 8.788000 # H
4 2 9.933000 8.841000 0.366000 # O
5 1 10.132000 8.196000 1.120000 # H
6 1 9.368000 8.449000 -0.316000 # H
7 2 0.321000 1.492000 5.796000 # O
8 1 -0.287000 1.993000 5.241000 # H
9 1 0.791000 2.061000 6.364000 # H
10 2 8.035000 9.735000 4.307000 # O
11 1 7.203000 9.789000 4.847000 # H
12 1 8.636000 9.307000 4.920000 # H
13 2 5.663000 9.082000 0.660000 # O
14 1 6.378000 9.721000 0.814000 # H
15 1 5.213000 8.991000 1.552000 # H
16 2 8.130000 0.215000 1.201000 # O
17 1 8.196000 -0.065000 2.118000 # H
18 1 8.938000 -0.161000 0.818000 # H
19 2 8.177000 4.165000 0.716000 # O
20 1 7.895000 5.066000 0.840000 # H
21 1 7.722000 3.562000 1.341000 # H
22 2 6.341000 3.256000 9.678000 # O
23 1 7.133000 3.423000 10.189000 # H
24 1 6.507000 2.398000 9.350000 # H
25 2 0.136000 7.798000 2.738000 # O
26 1 -0.006000 8.300000 3.584000 # H
27 1 0.314000 6.905000 2.966000 # H
28 2 5.027000 2.563000 6.169000 # O
29 1 5.538000 3.336000 6.262000 # H
30 1 5.313000 2.031000 6.922000 # H
31 2 7.164000 2.542000 2.418000 # O
32 1 6.248000 2.467000 2.667000 # H
33 1 7.384000 1.681000 2.057000 # H
34 2 3.336000 9.051000 3.265000 # O
35 1 2.818000 8.341000 2.787000 # H
36 1 2.733000 9.794000 3.398000 # H
37 2 1.476000 1.420000 0.819000 # O
38 1 1.060000 0.568000 0.631000 # H
39 1 1.582000 1.509000 1.770000 # H
40 2 1.222000 4.946000 3.218000 # O
41 1 2.111000 4.703000 3.522000 # H
42 1 1.342000 4.956000 2.245000 # H
43 2 6.790000 6.491000 4.488000 # O
44 1 7.083000 5.755000 5.074000 # H
45 1 6.747000 7.293000 4.975000 # H
46 2 9.330000 3.465000 4.430000 # O
47 1 9.974000 3.956000 3.918000 # H
48 1 8.583000 3.143000 3.966000 # H
49 2 7.484000 4.543000 6.379000 # O
50 1 7.604000 4.450000 7.328000 # H
51 1 8.241000 4.098000 5.987000 # H
52 2 0.448000 5.701000 8.219000 # O
53 1 0.573000 4.840000 7.871000 # H
54 1 0.720000 5.651000 9.123000 # H
55 2 0.736000 4.082000 0.545000 # O
56 1 1.032000 3.147000 0.501000 # H
57 1 -0.250000 3.978000 0.476000 # H
58 2 4.229000 2.582000 3.562000 # O
59 1 4.650000 2.364000 4.424000 # H
60 1 4.306000 3.526000 3.496000 # H
61 2 3.749000 5.318000 3.591000 # O
62 1 3.577000 5.600000 2.690000 # H
63 1 4.519000 5.812000 3.831000 # H
64 2 0.242000 8.540000 5.195000 # O
65 1 0.243000 9.452000 5.454000 # H
66 1 0.725000 8.102000 5.864000 # H
67 2 6.065000 0.243000 8.171000 # O
68 1 6.685000 -0.360000 8.559000 # H
69 1 5.235000 -0.020000 8.586000 # H
70 2 7.362000 8.029000 9.049000 # O
71 1 6.719000 7.831000 8.312000 # H
72 1 6.813000 7.839000 9.757000 # H
73 2 1.971000 1.171000 3.631000 # O
74 1 1.520000 1.399000 4.474000 # H
75 1 2.821000 1.577000 3.533000 # H
76 2 7.674000 6.605000 2.134000 # O
77 1 7.143000 6.490000 2.918000 # H
78 1 8.563000 6.681000 2.409000 # H
79 2 2.769000 7.384000 7.275000 # O
80 1 2.353000 8.088000 7.748000 # H
81 1 2.249000 6.554000 7.408000 # H
82 2 2.253000 2.791000 7.349000 # O
83 1 2.718000 3.230000 8.076000 # H
84 1 2.955000 2.671000 6.707000 # H
85 2 3.652000 9.953000 9.290000 # O
86 1 4.114000 9.509000 9.983000 # H
87 1 3.199000 10.639000 9.784000 # H
88 2 5.263000 6.708000 7.589000 # O
89 1 4.318000 7.082000 7.707000 # H
90 1 5.455000 7.057000 6.733000 # H
91 2 3.507000 6.721000 1.020000 # O
92 1 4.097000 7.303000 0.607000 # H
93 1 3.586000 5.984000 0.419000 # H
94 2 5.455000 9.196000 5.888000 # O
95 1 5.473000 9.602000 6.758000 # H
96 1 4.549000 9.238000 5.484000 # H

